
                                 *****************
                                 * O   R   C   A *
                                 *****************

                                            #,                                       
                                            ###                                      
                                            ####                                     
                                            #####                                    
                                            ######                                   
                                           ########,                                 
                                     ,,################,,,,,                         
                               ,,#################################,,                 
                          ,,##########################################,,             
                       ,#########################################, ''#####,          
                    ,#############################################,,   '####,        
                  ,##################################################,,,,####,       
                ,###########''''           ''''###############################       
              ,#####''   ,,,,##########,,,,          '''####'''          '####       
            ,##' ,,,,###########################,,,                        '##       
           ' ,,###''''                  '''############,,,                           
         ,,##''                                '''############,,,,        ,,,,,,###''
      ,#''                                            '''#######################'''  
     '                                                          ''''####''''         
             ,#######,   #######,   ,#######,      ##                                
            ,#'     '#,  ##    ##  ,#'     '#,    #''#        ,####,    ,#,          
            ##       ##  ##   ,#'  ##            #'  '#       #'       ,# #          
            ##       ##  #######   ##           ,######,      #####,      #          
            '#,     ,#'  ##    ##  '#,     ,#' ,#      #,     #,   #      #          
             '#######'   ##     ##  '#######'  #'      '#     '####' #    #          



                #########################################################
                #                        -***-                          #
                #          Department of theory and spectroscopy        #
                #                                                       #
                #                      Frank Neese                      #
                #                                                       #
                #     Directorship, Architecture, Infrastructure        #
                #                    SHARK, DRIVERS                     #
                #        Core code/Algorithms in most modules           #
                #                                                       #
                #        Max Planck Institute fuer Kohlenforschung      #
                #                Kaiser Wilhelm Platz 1                 #
                #                 D-45470 Muelheim/Ruhr                 #
                #                      Germany                          #
                #                                                       #
                #                  All rights reserved                  #
                #                        -***-                          #
                #########################################################


                         Program Version 6.1.0  -  RELEASE   -
                                (GIT: $679e74b$)
                          ($2025-06-10 18:02:51 +0200$)


 With contributions from (in alphabetic order):
[Max-Planck-Institut fuer Kohlenforschung]                               
  Daniel Aravena         : Magnetic Suceptibility                        
  Michael Atanasov       : Ab Initio Ligand Field Theory (pilot matlab implementation)
  Alexander A. Auer      : GIAO ZORA, VPT2 properties, NMR spectrum      
  Ute Becker             : All parallelization in ORCA, NUMFREQ, NUMCALC 
  Giovanni Bistoni       : ED, misc. LED, open-shell LED, HFLD           
  Dmytro Bykov           : pre 5.0 version of the SCF Hessian            
  Marcos Casanova-Páez   : Triplet and SCS-CIS(D). UHF-(DLPNO)-IP/EA/STEOM-CCSD. UHF-CVS-IP/STEOM-CCSD   
  Vijay G. Chilkuri      : MRCI spin determinant printing, contributions to CSF-ICE 
  Pauline Colinet        : FMM embedding                                 
  Dipayan Datta          : RHF DLPNO-CCSD density                        
  Achintya Kumar Dutta   : EOM-CC, STEOM-CC                              
  Nicolas Foglia         : Exact transition moments, OPA infrastructure, MCD improvements    
  Dmitry Ganyushin       : Spin-Orbit,Spin-Spin,Magnetic field MRCI      
  Miquel Garcia-Rates    : C-PCM and meta-GGA Hessian, CCSD/C-PCM, Gaussian charge scheme 
  Tiago L. C. Gouveia    : GS-ROHF, GS-ROCIS                             
  Yang Guo               : DLPNO-NEVPT2, F12-NEVPT2, CIM, IAO-localization        
  Andreas Hansen         : Spin unrestricted coupled pair/coupled cluster methods 
  Ingolf Harden          : AUTO-CI MPn and infrastructure                
  Benjamin Helmich-Paris : MC-RPA, TRAH-(SCF,CASSCF), AVAS, COSX integrals, SCF dyn. polar., MC-PDFT, srDFT 
  Lee Huntington         : MR-EOM, pCC                                   
  Robert Izsak           : Overlap fitted RIJCOSX, COSX-SCS-MP3, EOM     
  Riya Kayal             : Wick's Theorem for AUTO-CI, AUTO-CI UHF-CCSDT 
  Emily Kempfer          : AUTO-CI RHF CISDT and CCSDT, approximate NEVPT4
  Christian Kollmar      : KDIIS, OOCD, Brueckner-CCSD(T), CCSD density, CASPT2, CASPT2-K, improved NEVPT2 
  Axel Koslowski         : Symmetry handling                             
  Simone Kossmann        : meta-GGA functionals, TD-DFT gradient, OOMP2, (MP2 Hessian; deprecated post 5.0) 
  Lucas Lang             : DCDCAS, Hyperfine gauge corrections, ICE-SOC+SSC
  Marvin Lechner         : AUTO-CI (C++ implementation), FIC-MRCC        
  Spencer Leger          : CASSCF response                               
  Dagmar Lenk            : GEPOL surface, SMD, ORCA-2-JSON               
  Dimitrios Liakos       : Extrapolation schemes; Compound Job, Property file
  Dimitrios Manganas     : Further ROCIS development; embedding schemes. LFT, Crystal Embedding 
  Dimitrios Pantazis     : SARC Basis sets                               
  Anastasios Papadopoulos: AUTO-CI, single reference methods and gradients 
  Taras Petrenko         : pre 6.0 DFT Hessian and TD-DFT gradient,  ECA, NRVS 
  Petra Pikulova         : Analytic Raman intensities                    
  Peter Pinski           : DLPNO-MP2, DLPNO-MP2 Gradient                 
  Shashank Vittal Rao    : ES-AILFT, MagRelax                            
  Christoph Reimann      : Effective Core Potentials                     
  Marius Retegan         : Local ZFS, SOC                                
  Christoph Riplinger    : Optimizer, TS searches, QM/MM, DLPNO-CCSD(T), (RO)-DLPNO pert. Triples 
  Michael Roemelt        : Original ROCIS implementation, recursive CI coupling coefficients
  Masaaki Saitow         : Open-shell DLPNO-CCSD energy and density      
  Barbara Sandhoefer     : DKH picture change effects                    
  Yorick L. A. Schmerwitz: GMF and freeze-and-release deltaSCF, NEB S-IDPP initial path                    
  Kantharuban Sivalingam : CASSCF convergence/infrastructure, NEVPT2, NEVPT3, NEVPT4(SD), FIC-MRCI and CEPA variants
  Bernardo de Souza      : ESD, SOC TD-DFT                               
  Georgi L. Stoychev     : AutoAux, RI-MP2 NMR, DLPNO-MP2 response, X2C  
  Van Anh Tran           : RI-MP2 g-tensors                              
  Willem Van den Heuvel  : Paramagnetic NMR                              
  Zikuan Wang            : NOTCH, Electric field optimization            
  Frank Wennmohs         : Technical directorship and infrastructure     
  Hang Xu                : AUTO-CI-Response properties                   
                                                                         
[FACCTs GmbH]                                                            
  Markus Bursch, Nicolas Foglia, Miquel Garcia-Rates, Ingolf Harden, Hagen Neugebauer, Anastasios Papadopoulos, 
  Christoph Riplinger, Bernardo de Souza, Georgi L. Stoychev                                                    
                                                                 
  APM, various basis sets, CI-OPT, improved COSX, DLPNO-Multilevel,           
  DOCKER, DRACO, updates on ESD, Fragmentator, GOAT, IRC, LR-CPCM, L-BFGS, MBIS, meta-GGA TD-DFT gradient, ML-optimized integration grids, 
  MM, NACMEs, nearIR, NEB, NEB-TS, NL-DFT gradient (VV10), 2- and 3-layer-ONIOM, interface openCOSMO-RS, QMMM,   
  Crystal-QMMM, RESP, rigid body optimization, SF, symmetry and pop. for TD-DFT, various functionals, SOLVATOR                                   
                                                                         
[Other institutions]                                                     
  V. Asgeirsson          : NEB                                           
  Christoph Bannwarth    : sTDA-DFT, sTD-DFT, PBEh-3c, B97-3c, D3        
  Giovanni Bistoni       : ETS/NOCV, ADLD/ADEX, COVALED                  
  Martin Brehm           : Molecular dynamics                            
  Ronald Cardenas        : ETS/NOCV                                      
  Martina Colucci        : COVALED                                       
  Sebastian Ehlert       : rSCAN, r2SCAN, r2SCAN-3c, D4, dhf basis sets  
  Marvin Friede          : D4 for Fr, Ra, Ac-Lr                          
  Lars Goerigk           : TD-DFT with DH, B97 family of functionals     
  Stefan Grimme          : VdW corrections, initial TS optimization, DFT functionals, gCP, sTDA/sTD-DF 
  Waldemar Hujo          : DFT-NL                                        
  H. Jonsson             : NEB                                           
  Holger Kruse           : gCP                                           
  Marcel Mueller         : wB97X-3c, vDZP basis set                      
  Hagen Neugebauer       : wr2SCAN, Native XTB                           
  Gianluca Regni         : ADLD/ADEX                                     
  Tobias Risthaus        : pre 6.0 range-separated hybrid DFT and stability analysis
  Lukas Wittmann         : regularized MP2, r2SCAN double-hybrids, wr2SCAN        
                                                                         
We gratefully acknowledge several colleagues who have allowed us to      
interface, adapt or use parts of their codes:                            
  Ed Valeev, F. Pavosevic, A. Kumar             : LibInt (2-el integral package), F12 methods 
  Garnet Chan, S. Sharma, J. Yang, R. Olivares  : DMRG                   
  Ulf Ekstrom                                   : XCFun DFT Library      
  Mihaly Kallay                                 : mrcc  (arbitrary order and MRCC methods)
  Frank Weinhold                                : gennbo (NPA and NBO analysis)           
  Simon Mueller                                 : openCOSMO-RS                            
  Christopher J. Cramer and Donald G. Truhlar   : smd solvation model                     
  S Lehtola, MJT Oliveira, MAL Marques          : LibXC Library                           
  Liviu Ungur et al                             : ANISO software                          


 Your calculation uses the libint2 library for the computation of 2-el integrals
 For citations please refer to: http://libint.valeyev.net

 Your ORCA version has been built with support for libXC version: 7.0.0
 For citations please refer to: https://libxc.gitlab.io

 This ORCA versions uses:
   CBLAS   interface :  Fast vector & matrix operations
   LAPACKE interface :  Fast linear algebra routines
   SCALAPACK package :  Parallel linear algebra routines
   Shared memory     :  Shared parallel matrices
   BLAS/LAPACK       :  OpenBLAS 0.3.29  USE64BITINT DYNAMIC_ARCH NO_AFFINITY Haswell SINGLE_THREADED
        Core in use  :  Haswell
   Copyright (c) 2011-2014, The OpenBLAS Project


  ***********************************
  * Starting time: Sun Aug 31 12:47:14 2025
  * Host name:     chemlab03
  * Process ID:    91665
  * Working dir.:  /home/vivek/mm-project/vivek/xtb-goat/MP2-opt/c/1
  ***********************************



***************************************
The coordinates will be read from file: /home/vivek/mm-project/vivek/xtb-goat/xtb-goat/c/C_CONF/1.xyz
***************************************


================================================================================

----- Orbital basis set information -----
Your calculation utilizes the basis: 6-31G**
   H-He, Li-Ne : W. J. Hehre, R. Ditchfield and J.A. Pople, J. Chem. Phys. 56, 2257 (1972).
                 Note: He and Ne are unpublished basis sets taken from the Gaussian program.
                 Note: Li and B from J. D. Dill and J. A. Pople, J. Chem. Phys. 62, 2921 (1975).
   Na - Ar     : M. M. Francl, W. J. Pietro, W. J. Hehre, J. S. Binkley, M. S. Gordon, 
                 D. J. DeFrees and J. A. Pople, J. Chem. Phys. 77, 3654 (1982).
   K - Zn      : V. A. Rassolov, J. A. Pople, M. A. Ratner, and T. L. Windus, J. Chem. Phys. 109, 1223 (1998).

================================================================================
                                        WARNINGS
                       Please study these warnings very carefully!
================================================================================


WARNING: The frozen-core approximation for MP2-gradient calculations is turned on by default.

WARNING: Geometry Optimization
  ===> : Switching off AutoStart
         For restart on a previous wavefunction, please use MOREAD

WARNING: Post HF methods need fully converged wavefunctions
  ===> : Setting SCFConvForced true
         You can overwrite this default with %scf ConvForced false 


================================================================================
                                       INPUT FILE
================================================================================
NAME = 1.inp
|  1> ! MP2 6-31G** opt
|  2> 
|  3> * xyzfile 0 1 /home/vivek/mm-project/vivek/xtb-goat/xtb-goat/c/C_CONF/1.xyz
|  4> 
|  5>                          ****END OF INPUT****
================================================================================

                       *****************************
                       * Geometry Optimization Run *
                       *****************************

Geometry optimization settings:
Update method            Update   .... BFGS
Choice of coordinates    CoordSys .... (2022) Redundant Internals
Initial Hessian          InHess   .... Almloef's Model
Max. no of cycles        MaxIter  .... 50

Convergence Tolerances:
Energy Change            TolE     ....  5.0000e-06 Eh
Max. Gradient            TolMAXG  ....  3.0000e-04 Eh/bohr
RMS Gradient             TolRMSG  ....  1.0000e-04 Eh/bohr
Max. Displacement        TolMAXD  ....  4.0000e-03 bohr
RMS Displacement         TolRMSD  ....  2.0000e-03 bohr
Strict Convergence                .... False

------------------------------------------------------------------------------
                        ORCA OPTIMIZATION COORDINATE SETUP
------------------------------------------------------------------------------

The optimization will be done in redundant internal coordinates (2022)
Making redundant internal coordinates   ...  (2022 redundants) done
Evaluating the initial hessian          ...  (Almloef) done
Evaluating the coordinates              ...  done
Calculating the B-matrix                .... done
Calculating the G-matrix                .... done
The number of degrees of freedom        ....   57

    -----------------------------------------------------------------
                    Redundant Internal Coordinates


    -----------------------------------------------------------------
         Definition                    Initial Value    Approx d2E/dq
    -----------------------------------------------------------------
      1. B(H   2,C   1)                  1.0885         0.362138   
      2. B(C   5,H   0)                  1.0960         0.352235   
      3. B(C   5,C   1)                  1.5331         0.369348   
      4. B(S   7,H   3)                  1.3305         0.401365   
      5. B(S   7,C   1)                  1.8213         0.345467   
      6. B(N   8,H   6)                  1.0130         0.427946   
      7. B(N   8,C   5)                  1.4475         0.453058   
      8. B(N   8,H   3)                  2.3432         0.010000   
      9. B(H   9,O   4)                  2.4164         0.010000   
     10. B(H   9,N   8)                  1.0151         0.424646   
     11. B(C  10,C   5)                  1.5282         0.375999   
     12. B(C  10,O   4)                  1.3395         0.673610   
     13. B(H  11,C   1)                  1.0913         0.358393   
     14. B(O  12,C  10)                  1.1999         1.125018   
     15. B(H  13,O   4)                  0.9702         0.500773   
     16. A(H   2,C   1,C   5)          110.8232         0.324014   
     17. A(H   2,C   1,H  11)          109.7510         0.290880   
     18. A(C   5,C   1,S   7)          110.6045         0.376717   
     19. A(H   2,C   1,S   7)          106.6992         0.336736   
     20. A(C   5,C   1,H  11)          110.4927         0.323461   
     21. A(S   7,C   1,H  11)          108.3684         0.336154   
     22. A(C  10,O   4,H  13)          110.4285         0.373016   
     23. A(C   1,C   5,N   8)          109.3313         0.372506   
     24. A(C   1,C   5,C  10)          106.7972         0.363047   
     25. A(H   0,C   5,N   8)          108.8525         0.331582   
     26. A(H   0,C   5,C  10)          107.7430         0.323489   
     27. A(N   8,C   5,C  10)          115.4326         0.373653   
     28. A(H   0,C   5,C   1)          108.4820         0.322543   
     29. A(C   1,S   7,H   3)           93.9247         0.367269   
     30. A(H   6,N   8,H   9)          107.8937         0.301813   
     31. A(C   5,N   8,H   9)          110.2627         0.339118   
     32. A(C   5,N   8,H   6)          111.0596         0.339557   
     33. A(O   4,C  10,C   5)          112.2522         0.400390   
     34. A(C   5,C  10,O  12)          124.8479         0.438720   
     35. A(O   4,C  10,O  12)          122.8837         0.484773   
     36. D(N   8,C   5,C   1,H   2)   -179.7270         0.010908   
     37. D(H   0,C   5,C   1,H   2)    -61.1514         0.010908   
     38. D(N   8,C   5,C   1,S   7)    -61.6000         0.010908   
     39. D(H   0,C   5,C   1,S   7)     56.9756         0.010908   
     40. D(H   0,C   5,C   1,H  11)    176.9703         0.010908   
     41. D(N   8,C   5,C   1,H  11)     58.3947         0.010908   
     42. D(H   3,S   7,C   1,H  11)    -76.4526         0.010000   
     43. D(H   3,S   7,C   1,C   5)     44.8078         0.010000   
     44. D(H   3,S   7,C   1,H   2)    165.4243         0.010000   
     45. D(H   9,N   8,C   5,C   1)    -67.7729         0.018780   
     46. D(H   9,N   8,C   5,H   0)    173.8824         0.018780   
     47. D(H   6,N   8,C   5,C  10)    -66.9249         0.018780   
     48. D(H   6,N   8,C   5,H   0)     54.3369         0.018780   
     49. D(H   9,N   8,C   5,C  10)     52.6206         0.018780   
     50. D(H   6,N   8,C   5,C   1)    172.6816         0.018780   
     51. D(O  12,C  10,C   5,C   1)    -76.4821         0.010564   
     52. D(O  12,C  10,C   5,H   0)     39.8938         0.010564   
     53. D(O   4,C  10,C   5,N   8)    -19.6786         0.010564   
     54. D(O   4,C  10,C   5,C   1)    102.0863         0.010564   
     55. D(O   4,C  10,C   5,H   0)   -141.5378         0.010564   
     56. D(O  12,C  10,O   4,H  13)      0.3033         0.037270   
     57. D(C   5,C  10,O   4,H  13)   -178.2977         0.037270   
    -----------------------------------------------------------------

Number of atoms                         .... 14
Number of degrees of freedom            .... 57


         *************************************************************
         *                GEOMETRY OPTIMIZATION CYCLE   1            *
         *************************************************************
---------------------------------
CARTESIAN COORDINATES (ANGSTROEM)
---------------------------------
  H     -1.604707    2.183468    1.765667
  C     -2.965673    0.992920    0.604925
  H     -2.980526    0.152766    1.296788
  H     -3.964628    3.074973    0.311490
  O      0.031237    0.877740   -0.660584
  C     -1.663897    1.790650    0.744182
  H     -0.889117    3.514688   -0.032120
  S     -4.402503    2.034212    1.015213
  N     -1.680977    2.901388   -0.183825
  H     -1.634009    2.561928   -1.139351
  C     -0.516131    0.798673    0.559440
  H     -3.084257    0.630709   -0.417651
  O     -0.149233    0.012537    1.388385
  H      0.737686    0.219883   -0.758085

----------------------------
CARTESIAN COORDINATES (A.U.)
----------------------------
  NO LB      ZA    FRAG     MASS         X           Y           Z
   0 H     1.0000    0     1.008   -3.032457    4.126156    3.336627
   1 C     6.0000    0    12.011   -5.604309    1.876347    1.143142
   2 H     1.0000    0     1.008   -5.632378    0.288686    2.450574
   3 H     1.0000    0     1.008   -7.492062    5.810858    0.588630
   4 O     8.0000    0    15.999    0.059030    1.658687   -1.248322
   5 C     6.0000    0    12.011   -3.144309    3.383839    1.406301
   6 H     1.0000    0     1.008   -1.680188    6.641798   -0.060699
   7 S    16.0000    0    32.060   -8.319524    3.844103    1.918475
   8 N     7.0000    0    14.007   -3.176586    5.482829   -0.347379
   9 H     1.0000    0     1.008   -3.087830    4.841343   -2.153061
  10 C     6.0000    0    12.011   -0.975347    1.509273    1.057188
  11 H     1.0000    0     1.008   -5.828400    1.191867   -0.789246
  12 O     8.0000    0    15.999   -0.282010    0.023692    2.623668
  13 H     1.0000    0     1.008    1.394025    0.415518   -1.432573

--------------------------------
INTERNAL COORDINATES (ANGSTROEM)
--------------------------------
 H      0   0   0     0.000000000000     0.00000000     0.00000000
 C      1   0   0     2.148709824958     0.00000000     0.00000000
 H      2   1   0     1.088463740963    95.33316383     0.00000000
 H      2   1   3     2.327866739723    81.04445084   139.70482875
 O      1   2   3     3.204361732536    71.85414648   102.36892125
 C      1   2   3     1.096010962029    42.58607213   124.68982387
 H      6   1   2     2.043339552026    91.78836517   140.96824221
 S      4   2   1     1.330468258034    51.31114435   250.38415285
 N      7   6   1     1.013012254645    41.38220111   230.28643724
 H      9   7   6     1.015119738906   107.89371765   239.04929970
 C      5   1   2     1.339522932114    29.05050801   278.94785274
 H      2   1   3     1.091293171458   139.36889113   230.94978868
 O     11   5   1     1.199905330453   122.88372573   203.26445708
 H      5   1   2     0.970233026000   136.39524193   246.93819617

---------------------------
INTERNAL COORDINATES (A.U.)
---------------------------
 H      0   0   0     0.000000000000     0.00000000     0.00000000
 C      1   0   0     4.060473110436     0.00000000     0.00000000
 H      2   1   0     2.056898377124    95.33316383     0.00000000
 H      2   1   3     4.399030614341    81.04445084   139.70482875
 O      1   2   3     6.055366108510    71.85414648   102.36892125
 C      1   2   3     2.071160558011    42.58607213   124.68982387
 H      6   1   2     3.861352151939    91.78836517   140.96824221
 S      4   2   1     2.514220637559    51.31114435   250.38415285
 N      7   6   1     1.914315731586    41.38220111   230.28643724
 H      9   7   6     1.918298299671   107.89371765   239.04929970
 C      5   1   2     2.531331491803    29.05050801   278.94785274
 H      2   1   3     2.062245225874   139.36889113   230.94978868
 O     11   5   1     2.267492461189   122.88372573   203.26445708
 H      5   1   2     1.833474705226   136.39524193   246.93819617

---------------------
BASIS SET INFORMATION
---------------------
There are 5 groups of distinct atoms

 Group   1 Type H   : 4s1p contracted to 2s1p pattern {31/1}
 Group   2 Type C   : 10s4p1d contracted to 3s2p1d pattern {631/31/1}
 Group   3 Type O   : 10s4p1d contracted to 3s2p1d pattern {631/31/1}
 Group   4 Type S   : 16s10p1d contracted to 4s3p1d pattern {6631/631/1}
 Group   5 Type N   : 10s4p1d contracted to 3s2p1d pattern {631/31/1}

Atom   0H    basis set group =>   1
Atom   1C    basis set group =>   2
Atom   2H    basis set group =>   1
Atom   3H    basis set group =>   1
Atom   4O    basis set group =>   3
Atom   5C    basis set group =>   2
Atom   6H    basis set group =>   1
Atom   7S    basis set group =>   4
Atom   8N    basis set group =>   5
Atom   9H    basis set group =>   1
Atom  10C    basis set group =>   2
Atom  11H    basis set group =>   1
Atom  12O    basis set group =>   3
Atom  13H    basis set group =>   1
------------------------------------------------------------------------------
                             ORCA STARTUP CALCULATIONS
------------------------------------------------------------------------------
------------------------------------------------------------------------------
                   ___                                                        
                  /   \      - P O W E R E D   B Y -                         
                 /     \                                                     
                 |  |  |   _    _      __       _____    __    __             
                 |  |  |  | |  | |    /  \     |  _  \  |  |  /  |          
                  \  \/   | |  | |   /    \    | | | |  |  | /  /          
                 / \  \   | |__| |  /  /\  \   | |_| |  |  |/  /          
                |  |  |   |  __  | /  /__\  \  |    /   |      \           
                |  |  |   | |  | | |   __   |  |    \   |  |\   \          
                \     /   | |  | | |  |  |  |  | |\  \  |  | \   \       
                 \___/    |_|  |_| |__|  |__|  |_| \__\ |__|  \__/        
                                                                              
                      - O R C A' S   B I G   F R I E N D -                    
                                      &                                       
                       - I N T E G R A L  F E E D E R -                       
                                                                              
 v1 FN, 2020, v2 2021, v3 2022-2024                                           
------------------------------------------------------------------------------


----------------------
SHARK INTEGRAL PACKAGE
----------------------

Number of atoms                             ...     14
Number of basis functions                   ...    137
Number of shells                            ...     65
Maximum angular momentum                    ...      2
Integral batch strategy                     ... SHARK/LIBINT Hybrid
RI-J (if used) integral strategy            ... SPLIT-RIJ (Revised 2003 algorithm where possible)
Printlevel                                  ...      1
Contraction scheme used                     ... SEGMENTED contraction
Prescreening option                         ... SCHWARTZ
   Thresh                                   ... 2.500e-11
   Tcut                                     ... 2.500e-12
   Tpresel                                  ... 2.500e-12 
Coulomb Range Separation                    ... NOT USED
Exchange Range Separation                   ... NOT USED
Multipole approximations                    ... NOT USED
Finite Nucleus Model                        ... NOT USED
CABS basis                                  ... NOT available
Auxiliary Coulomb fitting basis             ... NOT available
Auxiliary J/K fitting basis                 ... NOT available
Auxiliary Correlation fitting basis         ... NOT available
Auxiliary 'external' fitting basis          ... NOT available

Checking pre-screening integrals            ... done (  0.0 sec) Dimension = 65
   => SHARK Basis and OBASIS are compatible. Storing Pre-screening
Shell pair information
Shell pair cut-off parameter TPreSel        ...   2.5e-12
Total number of shell pairs                 ...      2145
Shell pairs after pre-screening             ...      2015
Total number of primitive shell pairs       ...     11826
Primitive shell pairs kept                  ...      7487
          la=0 lb=0:    616 shell pairs
          la=1 lb=0:    746 shell pairs
          la=1 lb=1:    241 shell pairs
          la=2 lb=0:    237 shell pairs
          la=2 lb=1:    147 shell pairs
          la=2 lb=2:     28 shell pairs

Checking whether 4 symmetric matrices of dimension 137 fit in memory
:Max Core in MB      =   4096.00
 MB in use           =      4.09
 MB left             =   4091.91
 MB needed           =      0.29
 Data fit in memory  = YES
Calculating Nuclear repulsion               ... done (  0.0 sec) ENN=    376.664284365738 Eh

Diagonalization of the overlap matrix:
Smallest eigenvalue                        ... 3.446e-03
Time for diagonalization                   ...    0.001 sec
Threshold for overlap eigenvalues          ... 1.000e-07
Number of eigenvalues below threshold      ... 0
Time for construction of square roots      ...    0.000 sec
Total time needed                          ...    0.001 sec

-------------------
DFT GRID GENERATION
-------------------

General Integration Accuracy     IntAcc      ... 4.388
Radial Grid Type                 RadialGrid  ... OptM3 with GC (2021)
Angular Grid (max. ang.)         AngularGrid ... 4 (Lebedev-302)
Angular grid pruning method      GridPruning ... 4 (adaptive)
Weight generation scheme         WeightScheme... mBecke (2022)
Basis function cutoff            BFCut       ... 1.0000e-11
Integration weight cutoff        WCut        ... 1.0000e-14
Partially contracted basis set               ... off
Rotationally invariant grid construction     ... off
Angular grids for H and He will be reduced by one unit

Total number of grid points                  ...    66144
Total number of batches                      ...     1039
Average number of points per batch           ...       63
Average number of grid points per atom       ...     4725
Grids setup in   0.2 sec
Initializing property integral containers    ... done (  0.0 sec)

SHARK setup successfully completed in   0.3 seconds

Maximum memory used throughout the entire STARTUP-calculation: 25.8 MB
-------------------------------------------------------------------------------
                                 ORCA GUESS
                   Start orbitals & Density for SCF / CASSCF
-------------------------------------------------------------------------------

------------
SCF SETTINGS
------------
Hamiltonian:
 Ab initio Hamiltonian  Method          .... Hartree-Fock(GTOs)


General Settings:
 Integral files         IntName         .... 1
 Hartree-Fock type      HFTyp           .... RHF
 Total Charge           Charge          ....    0
 Multiplicity           Mult            ....    1
 Number of Electrons    NEL             ....   64
 Basis Dimension        Dim             ....  137
 Nuclear Repulsion      ENuc            ....    376.6642843657 Eh

Convergence Acceleration:
 AO-DIIS                CNVDIIS         .... on
   Start iteration      DIISMaxIt       ....    12
   Startup error        DIISStart       ....  0.200000
   # of expansion vecs  DIISMaxEq       ....     5
   Bias factor          DIISBfac        ....   1.050
   Max. coefficient     DIISMaxC        ....  10.000
 MO-DIIS                CNVKDIIS        .... off
 Trust-Rad. Augm. Hess. CNVTRAH         .... auto
   Auto Start mean grad. ratio tolernc. ....  1.125000
   Auto Start start iteration           ....    50
   Auto Start num. interpolation iter.  ....    10
   Max. Number of Micro iterations      ....    24
   Max. Number of Macro iterations      .... Maxiter - #DIIS iter
   Number of Davidson start vectors     ....     2
   Converg. threshold    (grad. norm)   ....   1.000e-05
   Grad. Scal. Fac. for Micro threshold ....   0.100
   Minimum threshold for Micro iter.    ....   1.000e-02
   NR start threshold (gradient norm)   ....   1.000e-04
   Initial trust radius                 ....   0.400
   Minimum AH scaling param. (alpha)    ....   1.000
   Maximum AH scaling param. (alpha)    .... 1000.000
   Quad. conv. algorithm                .... NR
   White noise on init. David. guess    .... on
   Maximum white noise                  ....   0.010
   Pseudo random numbers                .... off
   Inactive MOs                         .... canonical
   Orbital update algorithm             .... Taylor
   Preconditioner                       .... Diag
   Full preconditioner red. dimension   ....   250
 SOSCF                 CNVSOSCF           .... on
   Start iteration     SOSCFMaxIt         ....   150
   Startup grad/error  SOSCFStart         ....  0.003300
   Hessian update      SOSCFHessUp        .... L-BFGS
   Autom. constraints  SOSCFAutoConstrain .... off
 Level Shifting         CNVShift        .... on
   Level shift para.    LevelShift      ....    0.2500
   Turn off err/grad.   ShiftErr        ....    0.0010
 Zerner damping         CNVZerner       .... off
 Static damping         CNVDamp         .... on
   Fraction old density DampFac         ....    0.7000
   Max. Damping (<1)    DampMax         ....    0.9800
   Min. Damping (>=0)   DampMin         ....    0.0000
   Turn off err/grad.   DampErr         ....    0.1000

SCF Procedure:
 Maximum # iterations   MaxIter         ....   125
 SCF integral mode      SCFMode         .... Direct
   Integral package                     .... SHARK and LIBINT hybrid scheme
 Reset frequency        DirectResetFreq ....    20
 Integral Threshold     Thresh          ....  2.500e-11 Eh
 Primitive CutOff       TCut            ....  2.500e-12 Eh

Convergence Tolerance:
 Convergence Check Mode ConvCheckMode   .... Total+1el-Energy
 Convergence forced     ConvForced      .... 1
 Energy Change          TolE            ....  1.000e-08 Eh
 1-El. energy change                    ....  1.000e-05 Eh
 Orbital Gradient       TolG            ....  1.000e-05
 Orbital Rotation angle TolX            ....  1.000e-05
 DIIS Error             TolErr          ....  5.000e-07

------------------------------
INITIAL GUESS: MODEL POTENTIAL
------------------------------
Loading Hartree-Fock densities                     ... done
Calculating cut-offs                               ... done
Initializing the effective Hamiltonian             ... done
Setting up the integral package (SHARK)            ... done
Starting the Coulomb interaction                   ... done (   0.0 sec)
Making the grid                                    ... done (   0.1 sec)
Mapping shells                                     ... done
Starting the XC term evaluation                    ... done (   0.0 sec)
Transforming the Hamiltonian                       ... done (   0.0 sec)
Diagonalizing the Hamiltonian                      ... done (   0.0 sec)
Back transforming the eigenvectors                 ... done (   0.0 sec)
Now organizing SCF variables                       ... done
                      ------------------
                      INITIAL GUESS DONE (   0.1 sec)
                      ------------------
             **** ENERGY FILE WAS UPDATED (1.en.tmp) ****
Finished Guess after   0.1 sec
Maximum memory used throughout the entire GUESS-calculation: 8.3 MB

-------------------------------------------------------------------------------------------
                                      ORCA LEAN-SCF
                              memory conserving SCF solver
-------------------------------------------------------------------------------------------

----------------------------------------D-I-I-S--------------------------------------------
Iteration    Energy (Eh)           Delta-E    RMSDP     MaxDP     DIISErr   Damp  Time(sec)
-------------------------------------------------------------------------------------------
               ***  Starting incremental Fock matrix formation  ***
    1    -719.1105566524215646     0.00e+00  2.86e-03  6.50e-02  2.44e-01  0.700   0.8
    2    -719.2107027918571021    -1.00e-01  2.13e-03  4.65e-02  1.49e-01  0.700   0.8
                               ***Turning on AO-DIIS***
    3    -719.2687110141589528    -5.80e-02  1.18e-03  2.86e-02  8.18e-02  0.700   0.8
    4    -719.3053578126109642    -3.66e-02  2.71e-03  6.77e-02  5.56e-02  0.000   0.8
    5    -719.3876179525002499    -8.23e-02  3.29e-04  4.37e-03  5.19e-03  0.000   0.8
                              *** Initializing SOSCF ***
---------------------------------------S-O-S-C-F--------------------------------------
Iteration    Energy (Eh)           Delta-E    RMSDP     MaxDP     MaxGrad    Time(sec)
--------------------------------------------------------------------------------------
    6    -719.3880301431249791    -4.12e-04  1.70e-04  1.92e-03  2.05e-03     0.7
               *** Restarting incremental Fock matrix formation ***
    7    -719.3881255897201754    -9.54e-05  1.04e-04  1.43e-03  1.44e-03     0.8
    8    -719.3881549711932166    -2.94e-05  1.15e-04  1.55e-03  4.09e-04     0.7
    9    -719.3881650560156231    -1.01e-05  2.17e-05  3.05e-04  2.24e-04     0.7
   10    -719.3881660551596724    -9.99e-07  7.38e-06  1.06e-04  5.47e-05     0.7
   11    -719.3881661592113232    -1.04e-07  3.27e-06  6.42e-05  1.40e-05     0.6
   12    -719.3881661738032562    -1.46e-08  7.21e-07  1.73e-05  7.33e-06     0.6
   13    -719.3881661751133834    -1.31e-09  1.76e-07  3.11e-06  1.08e-06     0.5
                 **** Energy Check signals convergence ****

               *****************************************************
               *                     SUCCESS                       *
               *           SCF CONVERGED AFTER  13 CYCLES          *
               *****************************************************

             **** ENERGY FILE WAS UPDATED (1.en.tmp) ****

----------------
TOTAL SCF ENERGY
----------------

Total Energy       :       -719.38816617610996 Eh          -19575.54720 eV

Components:
Nuclear Repulsion  :        376.66428436573807 Eh           10249.55625 eV
Electronic Energy  :      -1096.05245054184797 Eh          -29825.10346 eV
One Electron Energy:      -1738.02972335714048 Eh          -47294.19316 eV
Two Electron Energy:        641.97727281529251 Eh           17469.08970 eV

Virial components:
Potential Energy   :      -1438.48466402016857 Eh          -39143.15771 eV
Kinetic Energy     :        719.09649784405872 Eh           19567.61050 eV
Virial Ratio       :          2.00040560388338

---------------
SCF CONVERGENCE
---------------

  Last Energy change         ...    1.3101e-09  Tolerance :   1.0000e-08
  Last MAX-Density change    ...    3.1117e-06  Tolerance :   1.0000e-07
  Last RMS-Density change    ...    1.7604e-07  Tolerance :   5.0000e-09
  Last DIIS Error            ...    2.0507e-03  Tolerance :   5.0000e-07
  Last Orbital Gradient      ...    1.0840e-06  Tolerance :   1.0000e-05
  Last Orbital Rotation      ...    1.0220e-06  Tolerance :   1.0000e-05


----------------
ORBITAL ENERGIES
----------------

  NO   OCC          E(Eh)            E(eV) 
   0   2.0000     -91.925261     -2501.4135 
   1   2.0000     -20.630175      -561.3756 
   2   2.0000     -20.563337      -559.5568 
   3   2.0000     -15.567186      -423.6047 
   4   2.0000     -11.394679      -310.0650 
   5   2.0000     -11.291653      -307.2615 
   6   2.0000     -11.271223      -306.7056 
   7   2.0000      -8.942003      -243.3243 
   8   2.0000      -6.624184      -180.2532 
   9   2.0000      -6.622943      -180.2194 
  10   2.0000      -6.620760      -180.1600 
  11   2.0000      -1.480398       -40.2837 
  12   2.0000      -1.373626       -37.3783 
  13   2.0000      -1.219577       -33.1864 
  14   2.0000      -1.061394       -28.8820 
  15   2.0000      -0.966147       -26.2902 
  16   2.0000      -0.865386       -23.5484 
  17   2.0000      -0.818856       -22.2822 
  18   2.0000      -0.715500       -19.4697 
  19   2.0000      -0.708847       -19.2887 
  20   2.0000      -0.693971       -18.8839 
  21   2.0000      -0.640720       -17.4349 
  22   2.0000      -0.622641       -16.9429 
  23   2.0000      -0.598298       -16.2805 
  24   2.0000      -0.572967       -15.5912 
  25   2.0000      -0.540220       -14.7001 
  26   2.0000      -0.519462       -14.1353 
  27   2.0000      -0.496975       -13.5234 
  28   2.0000      -0.485404       -13.2085 
  29   2.0000      -0.445322       -12.1178 
  30   2.0000      -0.406943       -11.0735 
  31   2.0000      -0.351532        -9.5657 
  32   0.0000       0.156308         4.2533 
  33   0.0000       0.193257         5.2588 
  34   0.0000       0.211885         5.7657 
  35   0.0000       0.245443         6.6789 
  36   0.0000       0.249404         6.7866 
  37   0.0000       0.259674         7.0661 
  38   0.0000       0.286610         7.7991 
  39   0.0000       0.310506         8.4493 
  40   0.0000       0.322645         8.7796 
  41   0.0000       0.375182        10.2092 
  42   0.0000       0.397139        10.8067 
*Only the first 10 virtual orbitals were printed.

                    ********************************
                    * MULLIKEN POPULATION ANALYSIS *
                    ********************************

-----------------------
MULLIKEN ATOMIC CHARGES
-----------------------
   0 H :    0.188725
   1 C :   -0.388431
   2 H :    0.184580
   3 H :    0.094467
   4 O :   -0.642563
   5 C :   -0.038148
   6 H :    0.285184
   7 S :   -0.023923
   8 N :   -0.694498
   9 H :    0.288556
  10 C :    0.788671
  11 H :    0.155201
  12 O :   -0.573439
  13 H :    0.375619
Sum of atomic charges:   -0.0000000

--------------------------------
MULLIKEN REDUCED ORBITAL CHARGES
--------------------------------
  0 H s       :     0.799037  s :     0.799037
      pz      :     0.008591  p :     0.012238
      px      :     0.001475
      py      :     0.002173

  1 C s       :     3.311871  s :     3.311871
      pz      :     1.112632  p :     3.028468
      px      :     0.891159
      py      :     1.024677
      dz2     :     0.011759  d :     0.048092
      dxz     :     0.004011
      dyz     :     0.012425
      dx2y2   :     0.008223
      dxy     :     0.011674

  2 H s       :     0.802462  s :     0.802462
      pz      :     0.004891  p :     0.012958
      px      :     0.001615
      py      :     0.006451

  3 H s       :     0.886931  s :     0.886931
      pz      :     0.006351  p :     0.018601
      px      :     0.004237
      py      :     0.008013

  4 O s       :     3.833946  s :     3.833946
      pz      :     1.530141  p :     4.783398
      px      :     1.561767
      py      :     1.691490
      dz2     :     0.010701  d :     0.025219
      dxz     :     0.004353
      dyz     :     0.003531
      dx2y2   :     0.000554
      dxy     :     0.006081

  5 C s       :     3.207507  s :     3.207507
      pz      :     1.011860  p :     2.760157
      px      :     0.915874
      py      :     0.832423
      dz2     :     0.017064  d :     0.070484
      dxz     :     0.004986
      dyz     :     0.016905
      dx2y2   :     0.009167
      dxy     :     0.022361

  6 H s       :     0.688599  s :     0.688599
      pz      :     0.003950  p :     0.026217
      px      :     0.012126
      py      :     0.010141

  7 S s       :     5.841656  s :     5.841656
      pz      :     3.709151  p :    10.113822
      px      :     3.345818
      py      :     3.058853
      dz2     :     0.005198  d :     0.068445
      dxz     :     0.007336
      dyz     :     0.019514
      dx2y2   :     0.011941
      dxy     :     0.024457

  8 N s       :     3.598597  s :     3.598597
      pz      :     1.163806  p :     4.062120
      px      :     1.607339
      py      :     1.290975
      dz2     :     0.009364  d :     0.033782
      dxz     :     0.001721
      dyz     :     0.010411
      dx2y2   :     0.005286
      dxy     :     0.007000

  9 H s       :     0.685364  s :     0.685364
      pz      :     0.014634  p :     0.026080
      px      :     0.006140
      py      :     0.005305

 10 C s       :     2.950843  s :     2.950843
      pz      :     0.618924  p :     2.113647
      px      :     0.746584
      py      :     0.748139
      dz2     :     0.049603  d :     0.146839
      dxz     :     0.032550
      dyz     :     0.027690
      dx2y2   :     0.015006
      dxy     :     0.021990

 11 H s       :     0.832129  s :     0.832129
      pz      :     0.008429  p :     0.012670
      px      :     0.001760
      py      :     0.002481

 12 O s       :     3.872630  s :     3.872630
      pz      :     1.572856  p :     4.667657
      px      :     1.627438
      py      :     1.467363
      dz2     :     0.007044  d :     0.033152
      dxz     :     0.006746
      dyz     :     0.008749
      dx2y2   :     0.006633
      dxy     :     0.003979

 13 H s       :     0.582844  s :     0.582844
      pz      :     0.006541  p :     0.041537
      px      :     0.018285
      py      :     0.016711



                     *******************************
                     * LOEWDIN POPULATION ANALYSIS *
                     *******************************

----------------------
LOEWDIN ATOMIC CHARGES
----------------------
   0 H :    0.095535
   1 C :   -0.207656
   2 H :    0.093880
   3 H :    0.048235
   4 O :   -0.214233
   5 C :   -0.030247
   6 H :    0.134807
   7 S :    0.015290
   8 N :   -0.275640
   9 H :    0.135046
  10 C :    0.228156
  11 H :    0.073463
  12 O :   -0.299164
  13 H :    0.202529

-------------------------------
LOEWDIN REDUCED ORBITAL CHARGES
-------------------------------
  0 H s       :     0.864411  s :     0.864411
      pz      :     0.026012  p :     0.040055
      px      :     0.006139
      py      :     0.007904

  1 C s       :     2.941480  s :     2.941480
      pz      :     1.107935  p :     3.177154
      px      :     0.999672
      py      :     1.069546
      dz2     :     0.020539  d :     0.089023
      dxz     :     0.008523
      dyz     :     0.020445
      dx2y2   :     0.015982
      dxy     :     0.023534

  2 H s       :     0.863457  s :     0.863457
      pz      :     0.015792  p :     0.042664
      px      :     0.006222
      py      :     0.020649

  3 H s       :     0.900395  s :     0.900395
      pz      :     0.017794  p :     0.051371
      px      :     0.011640
      py      :     0.021937

  4 O s       :     3.458937  s :     3.458937
      pz      :     1.531386  p :     4.707235
      px      :     1.525166
      py      :     1.650682
      dz2     :     0.018451  d :     0.048061
      dxz     :     0.011163
      dyz     :     0.006599
      dx2y2   :     0.001440
      dxy     :     0.010408

  5 C s       :     2.872793  s :     2.872793
      pz      :     1.034217  p :     3.015247
      px      :     1.013738
      py      :     0.967292
      dz2     :     0.032234  d :     0.142207
      dxz     :     0.009814
      dyz     :     0.032902
      dx2y2   :     0.019471
      dxy     :     0.047786

  6 H s       :     0.782630  s :     0.782630
      pz      :     0.012193  p :     0.082563
      px      :     0.040048
      py      :     0.030323

  7 S s       :     5.623332  s :     5.623332
      pz      :     3.732799  p :    10.285440
      px      :     3.434627
      py      :     3.118015
      dz2     :     0.006218  d :     0.075938
      dxz     :     0.007963
      dyz     :     0.020531
      dx2y2   :     0.013265
      dxy     :     0.027961

  8 N s       :     3.181275  s :     3.181275
      pz      :     1.171598  p :     4.033729
      px      :     1.559772
      py      :     1.302359
      dz2     :     0.018238  d :     0.060636
      dxz     :     0.002954
      dyz     :     0.018842
      dx2y2   :     0.008122
      dxy     :     0.012481

  9 H s       :     0.782325  s :     0.782325
      pz      :     0.044376  p :     0.082629
      px      :     0.020684
      py      :     0.017568

 10 C s       :     2.848890  s :     2.848890
      pz      :     0.877879  p :     2.605004
      px      :     0.847167
      py      :     0.879958
      dz2     :     0.112234  d :     0.317950
      dxz     :     0.068697
      dyz     :     0.062355
      dx2y2   :     0.029240
      dxy     :     0.045424

 11 H s       :     0.884419  s :     0.884419
      pz      :     0.025738  p :     0.042118
      px      :     0.006788
      py      :     0.009592

 12 O s       :     3.546436  s :     3.546436
      pz      :     1.594496  p :     4.694634
      px      :     1.604706
      py      :     1.495432
      dz2     :     0.011673  d :     0.058094
      dxz     :     0.010310
      dyz     :     0.019328
      dx2y2   :     0.008520
      dxy     :     0.008262

 13 H s       :     0.676695  s :     0.676695
      pz      :     0.020764  p :     0.120775
      px      :     0.051364
      py      :     0.048647



                      *****************************
                      * MAYER POPULATION ANALYSIS *
                      *****************************

  NA   - Mulliken gross atomic population
  ZA   - Total nuclear charge
  QA   - Mulliken gross atomic charge
  VA   - Mayer's total valence
  BVA  - Mayer's bonded valence
  FA   - Mayer's free valence

  ATOM       NA         ZA         QA         VA         BVA        FA
  0 H      0.8113     1.0000     0.1887     0.9357     0.9357     0.0000
  1 C      6.3884     6.0000    -0.3884     3.7840     3.7840     0.0000
  2 H      0.8154     1.0000     0.1846     0.9354     0.9354    -0.0000
  3 H      0.9055     1.0000     0.0945     0.9701     0.9701     0.0000
  4 O      8.6426     8.0000    -0.6426     1.8329     1.8329    -0.0000
  5 C      6.0381     6.0000    -0.0381     3.7402     3.7402     0.0000
  6 H      0.7148     1.0000     0.2852     0.9002     0.9002    -0.0000
  7 S     16.0239    16.0000    -0.0239     1.9008     1.9008     0.0000
  8 N      7.6945     7.0000    -0.6945     2.7515     2.7515     0.0000
  9 H      0.7114     1.0000     0.2886     0.9014     0.9014     0.0000
 10 C      5.2113     6.0000     0.7887     3.6876     3.6876     0.0000
 11 H      0.8448     1.0000     0.1552     0.9317     0.9317     0.0000
 12 O      8.5734     8.0000    -0.5734     1.8973     1.8973     0.0000
 13 H      0.6244     1.0000     0.3756     0.8695     0.8695     0.0000

  Mayer bond orders larger than 0.100000
B(  0-H ,  5-C ) :   0.9560 B(  1-C ,  2-H ) :   0.9531 B(  1-C ,  5-C ) :   0.9477 
B(  1-C ,  7-S ) :   0.9728 B(  1-C , 11-H ) :   0.9533 B(  3-H ,  7-S ) :   0.9462 
B(  4-O , 10-C ) :   0.9762 B(  4-O , 13-H ) :   0.8383 B(  5-C ,  8-N ) :   0.9680 
B(  5-C , 10-C ) :   0.9127 B(  6-H ,  8-N ) :   0.9064 B(  8-N ,  9-H ) :   0.8959 
B( 10-C , 12-O ) :   1.8278 

-------
TIMINGS
-------

Total SCF time: 0 days 0 hours 0 min 9 sec 

Total time                  ....       9.874 sec
Sum of individual times     ....       9.390 sec  ( 95.1%)

SCF preparation             ....       0.015 sec  (  0.1%)
Fock matrix formation       ....       9.347 sec  ( 94.7%)
  Startup                   ....       0.000 sec  (  0.0% of F)
  Coulomb+Exchange Fock     ....       9.821 sec  (105.1% of F)
Diagonalization             ....       0.000 sec  (  0.0%)
Density matrix formation    ....       0.003 sec  (  0.0%)
Total Energy calculation    ....       0.001 sec  (  0.0%)
Population analysis         ....       0.001 sec  (  0.0%)
Orbital Transformation      ....       0.003 sec  (  0.0%)
Orbital Orthonormalization  ....       0.000 sec  (  0.0%)
DIIS solution               ....       0.012 sec  (  0.1%)
SOSCF solution              ....       0.008 sec  (  0.1%)
Finished LeanSCF after   9.9 sec

Maximum memory used throughout the entire LEANSCF-calculation: 11.8 MB

------------------------------------------------------------------------------
                                ORCA  MP2 
------------------------------------------------------------------------------

Freezing NCore=22 chemical core electrons
MP2 will be done in the AO integral direct mode
The Q1-step will be done using symmetric double matrices
Dimension of the basis                    ...  137
Memory devoted for MP2                    ... 4096 MB   
Memory needed for all in one shot         ...  208 MB
Number of MOs that can be treated together...  413      
MP2 density construction                  ... relaxed
The MP2 gradient is requested => amplitudes will be stored on disk
Total number of MOs              ...   21
Number of MOs treated per batch  ...   21 
Number of batches necessary      ...    1 
OPERATORS   0/  0 PASS   0
-----------------------------------------------
 MP2 CORRELATION ENERGY   :     -1.056123896 Eh
-----------------------------------------------


---------------------
MP2 DENSITY FORMATION
---------------------

Completing the external part of the density      ... done
Storing the unrelaxed density                    ... done

Calculating G(D)                                 ... done
Completing the Lagrangian                        ... done
Solving the Z-vector equations                   ... 
-------------------
SHARK CP-SCF DRIVER
-------------------

Dimension of the orbital basis          ...    137
Dimension of the CPSCF-problem          ...   3360
Number of operators                     ...      1
Max. number of iterations               ...    128
Convergence Tolerance                   ... 1.0e-04
Number of perturbations                 ...      1
Perturbation type                       ... REAL

----------------------------
POPLE LINEAR EQUATION SOLVER
----------------------------

  ITERATION   0:   ||err||_max =   1.2670e-01 (   1.0 sec)
  ITERATION   1:   ||err||_max =   3.1545e-02 (   1.0 sec)
  ITERATION   2:   ||err||_max =   1.3101e-02 (   1.0 sec)
  ITERATION   3:   ||err||_max =   3.4256e-03 (   1.0 sec)
  ITERATION   4:   ||err||_max =   1.0659e-03 (   1.0 sec)
  ITERATION   5:   ||err||_max =   2.8612e-04 (   1.0 sec)
  ITERATION   6:   ||err||_max =   9.1751e-05 (   1.0 sec)
                                                 ... done
Finalizing the relaxed density                   ... done
Transforming P to the AO basis                   ... done
Storing the relaxed density                      ... done

------------------------------------
ENERGY WEIGHTED DENSITY FINALIZATION
------------------------------------

Gathering the parts of the W-matrix              ...                                                      done
Forming the Z-density                            ... done
Transforming Z to the AO basis                   ... done
Calculating G(Z)                                 ... done
Finalizing the W-matrix                          ...                                                      done
Transforming W to the AO basis and storing       ... done

                *********************************************
                * UNRELAXED MP2 DENSITY POPULATION ANALYSIS *
                *********************************************

------------------------------------------------------------------------------
                           ORCA POPULATION ANALYSIS
------------------------------------------------------------------------------
Input electron density              ... 1.pmp2ur
BaseName (.gbw .S,...)              ... 1

                    ********************************
                    * MULLIKEN POPULATION ANALYSIS *
                    ********************************

-----------------------
MULLIKEN ATOMIC CHARGES
-----------------------
   0 H :    0.189151
   1 C :   -0.390874
   2 H :    0.184905
   3 H :    0.093647
   4 O :   -0.628974
   5 C :   -0.044449
   6 H :    0.283996
   7 S :   -0.021186
   8 N :   -0.686363
   9 H :    0.287068
  10 C :    0.755654
  11 H :    0.155692
  12 O :   -0.550686
  13 H :    0.372421
Sum of atomic charges:   -0.0000000

--------------------------------
MULLIKEN REDUCED ORBITAL CHARGES
--------------------------------
  0 H s       :     0.795998  s :     0.795998
      pz      :     0.009220  p :     0.014852
      px      :     0.002504
      py      :     0.003127
  1 C s       :     3.307642  s :     3.307642
      pz      :     1.108928  p :     3.018965
      px      :     0.888841
      py      :     1.021196
      dz2     :     0.014761  d :     0.064267
      dxz     :     0.007587
      dyz     :     0.015560
      dx2y2   :     0.011701
      dxy     :     0.014659
  2 H s       :     0.799544  s :     0.799544
      pz      :     0.005706  p :     0.015552
      px      :     0.002643
      py      :     0.007203
  3 H s       :     0.884893  s :     0.884893
      pz      :     0.007344  p :     0.021460
      px      :     0.005324
      py      :     0.008792
  4 O s       :     3.829746  s :     3.829746
      pz      :     1.519683  p :     4.750959
      px      :     1.551302
      py      :     1.679973
      dz2     :     0.015176  d :     0.048269
      dxz     :     0.008958
      dyz     :     0.008247
      dx2y2   :     0.005208
      dxy     :     0.010679
  5 C s       :     3.204601  s :     3.204601
      pz      :     1.008832  p :     2.753887
      px      :     0.913266
      py      :     0.831789
      dz2     :     0.019933  d :     0.085961
      dxz     :     0.008571
      dyz     :     0.019690
      dx2y2   :     0.012730
      dxy     :     0.025037
  6 H s       :     0.687807  s :     0.687807
      pz      :     0.004767  p :     0.028197
      px      :     0.012704
      py      :     0.010726
  7 S s       :     5.832916  s :     5.832916
      pz      :     3.691024  p :    10.079860
      px      :     3.333303
      py      :     3.055534
      dz2     :     0.013765  d :     0.108410
      dxz     :     0.015988
      dyz     :     0.027500
      dx2y2   :     0.019663
      dxy     :     0.031493
  8 N s       :     3.593973  s :     3.593973
      pz      :     1.157675  p :     4.036404
      px      :     1.595684
      py      :     1.283045
      dz2     :     0.013708  d :     0.055985
      dxz     :     0.006353
      dyz     :     0.014370
      dx2y2   :     0.009852
      dxy     :     0.011703
  9 H s       :     0.684847  s :     0.684847
      pz      :     0.014937  p :     0.028085
      px      :     0.007024
      py      :     0.006124
 10 C s       :     2.952617  s :     2.952617
      pz      :     0.625633  p :     2.134400
      px      :     0.753915
      py      :     0.754852
      dz2     :     0.051446  d :     0.157330
      dxz     :     0.034512
      dyz     :     0.029807
      dx2y2   :     0.017470
      dxy     :     0.024094
 11 H s       :     0.828930  s :     0.828930
      pz      :     0.009092  p :     0.015378
      px      :     0.002811
      py      :     0.003475
 12 O s       :     3.868134  s :     3.868134
      pz      :     1.560934  p :     4.627931
      px      :     1.612442
      py      :     1.454555
      dz2     :     0.011566  d :     0.054621
      dxz     :     0.011028
      dyz     :     0.012783
      dx2y2   :     0.010901
      dxy     :     0.008344
 13 H s       :     0.584908  s :     0.584908
      pz      :     0.007139  p :     0.042671
      px      :     0.018500
      py      :     0.017033


                     *******************************
                     * LOEWDIN POPULATION ANALYSIS *
                     *******************************

----------------------
LOEWDIN ATOMIC CHARGES
----------------------
   0 H :    0.095614
   1 C :   -0.210698
   2 H :    0.093937
   3 H :    0.046765
   4 O :   -0.205621
   5 C :   -0.034248
   6 H :    0.134193
   7 S :    0.019722
   8 N :   -0.270932
   9 H :    0.134242
  10 C :    0.203916
  11 H :    0.073620
  12 O :   -0.280715
  13 H :    0.200206

-------------------------------
LOEWDIN REDUCED ORBITAL CHARGES
-------------------------------
  0 H s       :     0.859709  s :     0.859709
      pz      :     0.027871  p :     0.044677
      px      :     0.007478
      py      :     0.009328
  1 C s       :     2.941262  s :     2.941262
      pz      :     1.102508  p :     3.161970
      px      :     0.995171
      py      :     1.064290
      dz2     :     0.024093  d :     0.107466
      dxz     :     0.012253
      dyz     :     0.024215
      dx2y2   :     0.019862
      dxy     :     0.027043
  2 H s       :     0.858911  s :     0.858911
      pz      :     0.017294  p :     0.047152
      px      :     0.007494
      py      :     0.022364
  3 H s       :     0.898065  s :     0.898065
      pz      :     0.018999  p :     0.055170
      px      :     0.012889
      py      :     0.023283
  4 O s       :     3.456991  s :     3.456991
      pz      :     1.521532  p :     4.676032
      px      :     1.514950
      py      :     1.639550
      dz2     :     0.023693  d :     0.072599
      dxz     :     0.016130
      dyz     :     0.011346
      dx2y2   :     0.005968
      dxy     :     0.015463
  5 C s       :     2.873250  s :     2.873250
      pz      :     1.029156  p :     3.000940
      px      :     1.008429
      py      :     0.963355
      dz2     :     0.035658  d :     0.160058
      dxz     :     0.013562
      dyz     :     0.036424
      dx2y2   :     0.023429
      dxy     :     0.050984
  6 H s       :     0.779589  s :     0.779589
      pz      :     0.013204  p :     0.086218
      px      :     0.041544
      py      :     0.031470
  7 S s       :     5.615328  s :     5.615328
      pz      :     3.713976  p :    10.246562
      px      :     3.419698
      py      :     3.112888
      dz2     :     0.015145  d :     0.118389
      dxz     :     0.017277
      dyz     :     0.029040
      dx2y2   :     0.021350
      dxy     :     0.035576
  8 N s       :     3.179451  s :     3.179451
      pz      :     1.164852  p :     4.006661
      px      :     1.548039
      py      :     1.293769
      dz2     :     0.023088  d :     0.084820
      dxz     :     0.007581
      dyz     :     0.023470
      dx2y2   :     0.013012
      dxy     :     0.017669
  9 H s       :     0.779480  s :     0.779480
      pz      :     0.046007  p :     0.086277
      px      :     0.021592
      py      :     0.018679
 10 C s       :     2.849677  s :     2.849677
      pz      :     0.880771  p :     2.617099
      px      :     0.851959
      py      :     0.884369
      dz2     :     0.113575  d :     0.329308
      dxz     :     0.070717
      dyz     :     0.065177
      dx2y2   :     0.031831
      dxy     :     0.048008
 11 H s       :     0.879624  s :     0.879624
      pz      :     0.027710  p :     0.046757
      px      :     0.008091
      py      :     0.010955
 12 O s       :     3.543440  s :     3.543440
      pz      :     1.582433  p :     4.655130
      px      :     1.590211
      py      :     1.482486
      dz2     :     0.016481  d :     0.082145
      dxz     :     0.015067
      dyz     :     0.024493
      dx2y2   :     0.013175
      dxy     :     0.012929
 13 H s       :     0.676587  s :     0.676587
      pz      :     0.021480  p :     0.123208
      px      :     0.052187
      py      :     0.049541


                      *****************************
                      * MAYER POPULATION ANALYSIS *
                      *****************************

  NA   - Mulliken gross atomic population
  ZA   - Total nuclear charge
  QA   - Mulliken gross atomic charge
  VA   - Mayer's total valence
  BVA  - Mayer's bonded valence
  FA   - Mayer's free valence

  ATOM       NA         ZA         QA         VA         BVA        FA
  0 H      0.8108     1.0000     0.1892     0.9434     0.8969     0.0465
  1 C      6.3909     6.0000    -0.3909     3.8769     3.5864     0.2905
  2 H      0.8151     1.0000     0.1849     0.9431     0.8968     0.0463
  3 H      0.9064     1.0000     0.0936     0.9787     0.9249     0.0538
  4 O      8.6290     8.0000    -0.6290     2.0927     1.7354     0.3573
  5 C      6.0444     6.0000    -0.0444     3.8173     3.5378     0.2795
  6 H      0.7160     1.0000     0.2840     0.9070     0.8622     0.0448
  7 S     16.0212    16.0000    -0.0212     2.1504     1.7864     0.3640
  8 N      7.6864     7.0000    -0.6864     2.9471     2.6197     0.3275
  9 H      0.7129     1.0000     0.2871     0.9085     0.8634     0.0451
 10 C      5.2443     6.0000     0.7557     3.7500     3.4600     0.2900
 11 H      0.8443     1.0000     0.1557     0.9404     0.8926     0.0478
 12 O      8.5507     8.0000    -0.5507     2.1611     1.7635     0.3975
 13 H      0.6276     1.0000     0.3724     0.8764     0.8325     0.0439

  Mayer bond orders larger than 0.100000
B(  0-H ,  5-C ) :   0.9192 B(  1-C ,  2-H ) :   0.9160 B(  1-C ,  5-C ) :   0.8938 
B(  1-C ,  7-S ) :   0.9066 B(  1-C , 11-H ) :   0.9155 B(  3-H ,  7-S ) :   0.9022 
B(  4-O , 10-C ) :   0.9229 B(  4-O , 13-H ) :   0.8037 B(  5-C ,  8-N ) :   0.9124 
B(  5-C , 10-C ) :   0.8630 B(  6-H ,  8-N ) :   0.8699 B(  8-N ,  9-H ) :   0.8594 
B( 10-C , 12-O ) :   1.7075 


                *******************************************
                * RELAXED MP2 DENSITY POPULATION ANALYSIS *
                *******************************************

------------------------------------------------------------------------------
                           ORCA POPULATION ANALYSIS
------------------------------------------------------------------------------
Input electron density              ... 1.pmp2re
BaseName (.gbw .S,...)              ... 1

                    ********************************
                    * MULLIKEN POPULATION ANALYSIS *
                    ********************************

-----------------------
MULLIKEN ATOMIC CHARGES
-----------------------
   0 H :    0.170619
   1 C :   -0.357975
   2 H :    0.169968
   3 H :    0.093565
   4 O :   -0.530125
   5 C :   -0.059902
   6 H :    0.270128
   7 S :   -0.036774
   8 N :   -0.624204
   9 H :    0.270260
  10 C :    0.564421
  11 H :    0.144328
  12 O :   -0.421418
  13 H :    0.347109
Sum of atomic charges:   -0.0000000

--------------------------------
MULLIKEN REDUCED ORBITAL CHARGES
--------------------------------
  0 H s       :     0.815426  s :     0.815426
      pz      :     0.008088  p :     0.013955
      px      :     0.002752
      py      :     0.003115
  1 C s       :     3.286600  s :     3.286600
      pz      :     1.098709  p :     3.012404
      px      :     0.893352
      py      :     1.020342
      dz2     :     0.013141  d :     0.058971
      dxz     :     0.007688
      dyz     :     0.014368
      dx2y2   :     0.011333
      dxy     :     0.012441
  2 H s       :     0.815257  s :     0.815257
      pz      :     0.005337  p :     0.014775
      px      :     0.002900
      py      :     0.006538
  3 H s       :     0.885357  s :     0.885357
      pz      :     0.007264  p :     0.021078
      px      :     0.005517
      py      :     0.008297
  4 O s       :     3.811707  s :     3.811707
      pz      :     1.507341  p :     4.671609
      px      :     1.518754
      py      :     1.645514
      dz2     :     0.013894  d :     0.046809
      dxz     :     0.008678
      dyz     :     0.008575
      dx2y2   :     0.005295
      dxy     :     0.010368
  5 C s       :     3.186588  s :     3.186588
      pz      :     1.002544  p :     2.794491
      px      :     0.937993
      py      :     0.853955
      dz2     :     0.017854  d :     0.078823
      dxz     :     0.008706
      dyz     :     0.017628
      dx2y2   :     0.012663
      dxy     :     0.021973
  6 H s       :     0.702796  s :     0.702796
      pz      :     0.005040  p :     0.027076
      px      :     0.011877
      py      :     0.010159
  7 S s       :     5.837159  s :     5.837159
      pz      :     3.685971  p :    10.100143
      px      :     3.334693
      py      :     3.079479
      dz2     :     0.012926  d :     0.099472
      dxz     :     0.015866
      dyz     :     0.025028
      dx2y2   :     0.018730
      dxy     :     0.026922
  8 N s       :     3.574399  s :     3.574399
      pz      :     1.144348  p :     3.996737
      px      :     1.571887
      py      :     1.280502
      dz2     :     0.013206  d :     0.053068
      dxz     :     0.006434
      dyz     :     0.012459
      dx2y2   :     0.009381
      dxy     :     0.011588
  9 H s       :     0.702787  s :     0.702787
      pz      :     0.013296  p :     0.026953
      px      :     0.007402
      py      :     0.006255
 10 C s       :     2.975415  s :     2.975415
      pz      :     0.681209  p :     2.312393
      px      :     0.817904
      py      :     0.813280
      dz2     :     0.049071  d :     0.147771
      dxz     :     0.032212
      dyz     :     0.028409
      dx2y2   :     0.015916
      dxy     :     0.022164
 11 H s       :     0.841003  s :     0.841003
      pz      :     0.008029  p :     0.014669
      px      :     0.003083
      py      :     0.003557
 12 O s       :     3.842843  s :     3.842843
      pz      :     1.537366  p :     4.526810
      px      :     1.564568
      py      :     1.424875
      dz2     :     0.011505  d :     0.051766
      dxz     :     0.010195
      dyz     :     0.011715
      dx2y2   :     0.009987
      dxy     :     0.008365
 13 H s       :     0.612045  s :     0.612045
      pz      :     0.007583  p :     0.040847
      px      :     0.017208
      py      :     0.016056


                     *******************************
                     * LOEWDIN POPULATION ANALYSIS *
                     *******************************

----------------------
LOEWDIN ATOMIC CHARGES
----------------------
   0 H :    0.095106
   1 C :   -0.216170
   2 H :    0.093667
   3 H :    0.049691
   4 O :   -0.170628
   5 C :   -0.054118
   6 H :    0.133885
   7 S :    0.015571
   8 N :   -0.258244
   9 H :    0.132125
  10 C :    0.123092
  11 H :    0.074256
  12 O :   -0.208970
  13 H :    0.190737

-------------------------------
LOEWDIN REDUCED ORBITAL CHARGES
-------------------------------
  0 H s       :     0.860728  s :     0.860728
      pz      :     0.026845  p :     0.044166
      px      :     0.007842
      py      :     0.009478
  1 C s       :     2.943041  s :     2.943041
      pz      :     1.105224  p :     3.170276
      px      :     0.996842
      py      :     1.068210
      dz2     :     0.022644  d :     0.102853
      dxz     :     0.012395
      dyz     :     0.023297
      dx2y2   :     0.019792
      dxy     :     0.024724
  2 H s       :     0.860016  s :     0.860016
      pz      :     0.016873  p :     0.046317
      px      :     0.007712
      py      :     0.021732
  3 H s       :     0.894729  s :     0.894729
      pz      :     0.019107  p :     0.055580
      px      :     0.013301
      py      :     0.023172
  4 O s       :     3.462310  s :     3.462310
      pz      :     1.520097  p :     4.634855
      px      :     1.496330
      py      :     1.618428
      dz2     :     0.023549  d :     0.073462
      dxz     :     0.016201
      dyz     :     0.012018
      dx2y2   :     0.006052
      dxy     :     0.015642
  5 C s       :     2.877857  s :     2.877857
      pz      :     1.032001  p :     3.022971
      px      :     1.019605
      py      :     0.971366
      dz2     :     0.033604  d :     0.153290
      dxz     :     0.013670
      dyz     :     0.034424
      dx2y2   :     0.023627
      dxy     :     0.047964
  6 H s       :     0.781150  s :     0.781150
      pz      :     0.013222  p :     0.084965
      px      :     0.040990
      py      :     0.030753
  7 S s       :     5.623034  s :     5.623034
      pz      :     3.710054  p :    10.252524
      px      :     3.413461
      py      :     3.129008
      dz2     :     0.014134  d :     0.108872
      dxz     :     0.017066
      dyz     :     0.026660
      dx2y2   :     0.020363
      dxy     :     0.030648
  8 N s       :     3.179881  s :     3.179881
      pz      :     1.164730  p :     3.995718
      px      :     1.538020
      py      :     1.292968
      dz2     :     0.022706  d :     0.082644
      dxz     :     0.007741
      dyz     :     0.021915
      dx2y2   :     0.012676
      dxy     :     0.017606
  9 H s       :     0.782950  s :     0.782950
      pz      :     0.044566  p :     0.084925
      px      :     0.021564
      py      :     0.018795
 10 C s       :     2.853420  s :     2.853420
      pz      :     0.896539  p :     2.700970
      px      :     0.886740
      py      :     0.917691
      dz2     :     0.112635  d :     0.322518
      dxz     :     0.069083
      dyz     :     0.064804
      dx2y2   :     0.029548
      dxy     :     0.046448
 11 H s       :     0.879630  s :     0.879630
      pz      :     0.026892  p :     0.046114
      px      :     0.008246
      py      :     0.010976
 12 O s       :     3.545703  s :     3.545703
      pz      :     1.567623  p :     4.581511
      px      :     1.554435
      py      :     1.459454
      dz2     :     0.017032  d :     0.081756
      dxz     :     0.014871
      dyz     :     0.023583
      dx2y2   :     0.013077
      dxy     :     0.013193
 13 H s       :     0.688196  s :     0.688196
      pz      :     0.021940  p :     0.121067
      px      :     0.050685
      py      :     0.048442


                      *****************************
                      * MAYER POPULATION ANALYSIS *
                      *****************************

  NA   - Mulliken gross atomic population
  ZA   - Total nuclear charge
  QA   - Mulliken gross atomic charge
  VA   - Mayer's total valence
  BVA  - Mayer's bonded valence
  FA   - Mayer's free valence

  ATOM       NA         ZA         QA         VA         BVA        FA
  0 H      0.8294     1.0000     0.1706     0.9509     0.9044     0.0465
  1 C      6.3580     6.0000    -0.3580     3.9280     3.6415     0.2864
  2 H      0.8300     1.0000     0.1700     0.9489     0.9025     0.0464
  3 H      0.9064     1.0000     0.0936     0.9858     0.9327     0.0531
  4 O      8.5301     8.0000    -0.5301     2.2113     1.8623     0.3489
  5 C      6.0599     6.0000    -0.0599     3.8862     3.6113     0.2748
  6 H      0.7299     1.0000     0.2701     0.9142     0.8693     0.0449
  7 S     16.0368    16.0000    -0.0368     2.1867     1.8274     0.3593
  8 N      7.6242     7.0000    -0.6242     3.0274     2.7047     0.3227
  9 H      0.7297     1.0000     0.2703     0.9201     0.8751     0.0450
 10 C      5.4356     6.0000     0.5644     3.9665     3.6943     0.2722
 11 H      0.8557     1.0000     0.1443     0.9442     0.8964     0.0478
 12 O      8.4214     8.0000    -0.4214     2.3197     1.9371     0.3826
 13 H      0.6529     1.0000     0.3471     0.8977     0.8548     0.0428

  Mayer bond orders larger than 0.100000
B(  0-H ,  5-C ) :   0.9110 B(  1-C ,  2-H ) :   0.9138 B(  1-C ,  5-C ) :   0.9042 
B(  1-C ,  7-S ) :   0.9306 B(  1-C , 11-H ) :   0.9115 B(  3-H ,  7-S ) :   0.8935 
B(  4-O , 10-C ) :   1.0038 B(  4-O , 13-H ) :   0.8101 B(  5-C ,  8-N ) :   0.9481 
B(  5-C , 10-C ) :   0.8618 B(  6-H ,  8-N ) :   0.8713 B(  8-N ,  9-H ) :   0.8625 
B( 10-C , 12-O ) :   1.8245 


----------------------------------
MP2 DERIVATIVE INTEGRAL GENERATION
----------------------------------

Input SCF Electron Density              ... 1.scfp
Input Correlated Electron Density       ... 1.pmp2re
Input Energy Weighted Density           ... 1.wmp2.tmp
Input Wavefunction Amplitudes           ... 1.mp2tsaa.tmp

Nuclear repulsion gradient              ... done (  0.0 sec)
HCore & Overlap gradient  (SHARK)       ... done (  0.1 sec)
Analytic two-electron gradient terms    ... 
  Batch handling in the gradient evaluation:
  General contraction                   ... not used
  Memory available                      ... 4087.7 MB
  Memory per occupied orbital in Q2     ...    3.0 MB
  Memory per occupied orbital in Q3     ...    0.0 MB
  Total memory requirement per |i>      ...    3.0 MB
  Number of orbitals treated per batch  ...     21
  Number of batches to be done          ...      1
done (  6.3 sec)

---------------------------------------
MP2 TOTAL ENERGY:     -720.444290072 Eh
---------------------------------------

The final MP2 gradient
  0:  -0.00090960   0.00297414   0.00308495
  1:   0.00732236  -0.00850893  -0.00209881
  2:  -0.00183949   0.00064195   0.00117374
  3:  -0.00062175  -0.00024715   0.00023991
  4:  -0.00339828  -0.00876001   0.02520405
  5:  -0.00151171   0.00598439   0.00387465
  6:  -0.00045730   0.00101852   0.00127860
  7:   0.00252378   0.00210060  -0.00238866
  8:   0.00338247  -0.00573350   0.00067107
  9:  -0.00276720  -0.00012131  -0.00150141
 10:   0.00837054  -0.01701763   0.00463884
 11:  -0.00412811   0.00257870  -0.00067195
 12:  -0.00784923   0.02285123  -0.02674786
 13:   0.00188353   0.00223899  -0.00675712

-----------------------------------
NORM OF THE MP2 GRADIENT:  0.052581
-----------------------------------

Maximum memory used throughout the entire MP2-calculation: 233.4 MB

-------------------------   --------------------
FINAL SINGLE POINT ENERGY      -720.444290071649
-------------------------   --------------------

------------------------------------------------------------------------------
                         ORCA GEOMETRY RELAXATION STEP
------------------------------------------------------------------------------

Reading the OPT-File                    .... done
Getting information on internals        .... done
Copying old internal coords+grads       .... done
Making the new internal coordinates     .... (2022 redundants) done
Validating the new internal coordinates .... (2022 redundants) done
Calculating the B-matrix                .... done
Calculating the G,G- and P matrices     .... done
Transforming gradient to internals      .... done
Projecting the internal gradient        .... done
Number of atoms                         ....  14
Number of internal coordinates          ....  57
Current Energy                          ....  -720.444290072 Eh
Current gradient norm                   ....     0.052581149 Eh/bohr
Maximum allowed component of the step   ....  0.300
Current trust radius                    ....  0.300
Evaluating the initial hessian          ....  (Almloef) done
Projecting the Hessian                  .... done
Forming the augmented Hessian           .... done
Diagonalizing the augmented Hessian     .... done
Last element of RFO vector              ....  0.986841086
Lowest eigenvalues of augmented Hessian:
 -0.003387955  0.010004199  0.010564357  0.010741188  0.016464049
Length of the computed step             ....  0.163849218
The final length of the internal step   ....  0.163849218
Converting the step to Cartesian space:
 Initial RMS(Int)=    0.0217023591
Transforming coordinates:
 Iter   0:  RMS(Cart)=    0.0396781363 RMS(Int)=    0.8292978899
done
Storing new coordinates                 .... done

                                .--------------------.
          ----------------------|Geometry convergence|-------------------------
          Item                value                   Tolerance       Converged
[...]
      px      :     0.005146
      py      :     0.008392
  4 O s       :     3.826495  s :     3.826495
      pz      :     1.506902  p :     4.659310
      px      :     1.529850
      py      :     1.622558
      dz2     :     0.014197  d :     0.047536
      dxz     :     0.009128
      dyz     :     0.008571
      dx2y2   :     0.005359
      dxy     :     0.010280
  5 C s       :     3.185260  s :     3.185260
      pz      :     1.005693  p :     2.795981
      px      :     0.936487
      py      :     0.853801
      dz2     :     0.017747  d :     0.078532
      dxz     :     0.008778
      dyz     :     0.017294
      dx2y2   :     0.012690
      dxy     :     0.022023
  6 H s       :     0.704695  s :     0.704695
      pz      :     0.005237  p :     0.027014
      px      :     0.011672
      py      :     0.010105
  7 S s       :     5.836049  s :     5.836049
      pz      :     3.662052  p :    10.090226
      px      :     3.337003
      py      :     3.091171
      dz2     :     0.012698  d :     0.100132
      dxz     :     0.016137
      dyz     :     0.026196
      dx2y2   :     0.020077
      dxy     :     0.025024
  8 N s       :     3.584947  s :     3.584947
      pz      :     1.141702  p :     3.981646
      px      :     1.580116
      py      :     1.259828
      dz2     :     0.012510  d :     0.053642
      dxz     :     0.007485
      dyz     :     0.012423
      dx2y2   :     0.009297
      dxy     :     0.011927
  9 H s       :     0.702430  s :     0.702430
      pz      :     0.013195  p :     0.026994
      px      :     0.007537
      py      :     0.006262
 10 C s       :     2.987767  s :     2.987767
      pz      :     0.673022  p :     2.303286
      px      :     0.819259
      py      :     0.811004
      dz2     :     0.046806  d :     0.141402
      dxz     :     0.031003
      dyz     :     0.027323
      dx2y2   :     0.015248
      dxy     :     0.021022
 11 H s       :     0.842683  s :     0.842683
      pz      :     0.007983  p :     0.014613
      px      :     0.002971
      py      :     0.003659
 12 O s       :     3.858222  s :     3.858222
      pz      :     1.527262  p :     4.519954
      px      :     1.566678
      py      :     1.426014
      dz2     :     0.011391  d :     0.050938
      dxz     :     0.010049
      dyz     :     0.011709
      dx2y2   :     0.009616
      dxy     :     0.008174
 13 H s       :     0.612681  s :     0.612681
      pz      :     0.007488  p :     0.040682
      px      :     0.016307
      py      :     0.016886


                     *******************************
                     * LOEWDIN POPULATION ANALYSIS *
                     *******************************

----------------------
LOEWDIN ATOMIC CHARGES
----------------------
   0 H :    0.094120
   1 C :   -0.219641
   2 H :    0.093082
   3 H :    0.049984
   4 O :   -0.183108
   5 C :   -0.054779
   6 H :    0.133953
   7 S :    0.025882
   8 N :   -0.260194
   9 H :    0.132044
  10 C :    0.143007
  11 H :    0.073603
  12 O :   -0.218605
  13 H :    0.190651

-------------------------------
LOEWDIN REDUCED ORBITAL CHARGES
-------------------------------
  0 H s       :     0.861045  s :     0.861045
      pz      :     0.027212  p :     0.044835
      px      :     0.008116
      py      :     0.009507
  1 C s       :     2.941620  s :     2.941620
      pz      :     1.106381  p :     3.174055
      px      :     0.998643
      py      :     1.069031
      dz2     :     0.022371  d :     0.103966
      dxz     :     0.012808
      dyz     :     0.023769
      dx2y2   :     0.020716
      dxy     :     0.024302
  2 H s       :     0.860631  s :     0.860631
      pz      :     0.016540  p :     0.046287
      px      :     0.007709
      py      :     0.022038
  3 H s       :     0.895479  s :     0.895479
      pz      :     0.019135  p :     0.054538
      px      :     0.011995
      py      :     0.023407
  4 O s       :     3.483002  s :     3.483002
      pz      :     1.522636  p :     4.628136
      px      :     1.507522
      py      :     1.597979
      dz2     :     0.023375  d :     0.071970
      dxz     :     0.015891
      dyz     :     0.011318
      dx2y2   :     0.005937
      dxy     :     0.015449
  5 C s       :     2.877150  s :     2.877150
      pz      :     1.032734  p :     3.025038
      px      :     1.019719
      py      :     0.972584
      dz2     :     0.033198  d :     0.152591
      dxz     :     0.013763
      dyz     :     0.033704
      dx2y2   :     0.023726
      dxy     :     0.048200
  6 H s       :     0.781521  s :     0.781521
      pz      :     0.013779  p :     0.084526
      px      :     0.040243
      py      :     0.030504
  7 S s       :     5.621097  s :     5.621097
      pz      :     3.690803  p :    10.243332
      px      :     3.413351
      py      :     3.139177
      dz2     :     0.013838  d :     0.109689
      dxz     :     0.017499
      dyz     :     0.027915
      dx2y2   :     0.021890
      dxy     :     0.028548
  8 N s       :     3.190483  s :     3.190483
      pz      :     1.161906  p :     3.987227
      px      :     1.549258
      py      :     1.276062
      dz2     :     0.021525  d :     0.082484
      dxz     :     0.008915
      dyz     :     0.021839
      dx2y2   :     0.012467
      dxy     :     0.017738
  9 H s       :     0.783098  s :     0.783098
      pz      :     0.044090  p :     0.084858
      px      :     0.022157
      py      :     0.018611
 10 C s       :     2.862794  s :     2.862794
      pz      :     0.888960  p :     2.689039
      px      :     0.884488
      py      :     0.915591
      dz2     :     0.106380  d :     0.305161
      dxz     :     0.065681
      dyz     :     0.061499
      dx2y2   :     0.028267
      dxy     :     0.043333
 11 H s       :     0.880422  s :     0.880422
      pz      :     0.026671  p :     0.045975
      px      :     0.008037
      py      :     0.011268
 12 O s       :     3.560846  s :     3.560846
      pz      :     1.560886  p :     4.578490
      px      :     1.556972
      py      :     1.460631
      dz2     :     0.016547  d :     0.079269
      dxz     :     0.014375
      dyz     :     0.023298
      dx2y2   :     0.012586
      dxy     :     0.012463
 13 H s       :     0.688830  s :     0.688830
      pz      :     0.021308  p :     0.120519
      px      :     0.048209
      py      :     0.051001


                      *****************************
                      * MAYER POPULATION ANALYSIS *
                      *****************************

  NA   - Mulliken gross atomic population
  ZA   - Total nuclear charge
  QA   - Mulliken gross atomic charge
  VA   - Mayer's total valence
  BVA  - Mayer's bonded valence
  FA   - Mayer's free valence

  ATOM       NA         ZA         QA         VA         BVA        FA
  0 H      0.8305     1.0000     0.1695     0.9506     0.9040     0.0466
  1 C      6.3561     6.0000    -0.3561     3.9284     3.6421     0.2862
  2 H      0.8322     1.0000     0.1678     0.9493     0.9025     0.0468
  3 H      0.9080     1.0000     0.0920     0.9850     0.9318     0.0532
  4 O      8.5333     8.0000    -0.5333     2.2133     1.8595     0.3538
  5 C      6.0598     6.0000    -0.0598     3.8894     3.6138     0.2756
  6 H      0.7317     1.0000     0.2683     0.9135     0.8682     0.0452
  7 S     16.0264    16.0000    -0.0264     2.1964     1.8387     0.3577
  8 N      7.6202     7.0000    -0.6202     3.0269     2.7038     0.3232
  9 H      0.7294     1.0000     0.2706     0.9195     0.8744     0.0451
 10 C      5.4325     6.0000     0.5675     3.9393     3.6601     0.2792
 11 H      0.8573     1.0000     0.1427     0.9447     0.8966     0.0481
 12 O      8.4291     8.0000    -0.4291     2.3124     1.9224     0.3900
 13 H      0.6534     1.0000     0.3466     0.8996     0.8560     0.0436

  Mayer bond orders larger than 0.100000
B(  0-H ,  5-C ) :   0.9114 B(  1-C ,  2-H ) :   0.9127 B(  1-C ,  5-C ) :   0.9021 
B(  1-C ,  7-S ) :   0.9366 B(  1-C , 11-H ) :   0.9101 B(  3-H ,  7-S ) :   0.8968 
B(  4-O , 10-C ) :   0.9920 B(  4-O , 13-H ) :   0.8104 B(  5-C ,  8-N ) :   0.9501 
B(  5-C , 10-C ) :   0.8648 B(  6-H ,  8-N ) :   0.8713 B(  8-N ,  9-H ) :   0.8625 
B( 10-C , 12-O ) :   1.7994 


----------------------------------
MP2 DERIVATIVE INTEGRAL GENERATION
----------------------------------

Input SCF Electron Density              ... 1.scfp
Input Correlated Electron Density       ... 1.pmp2re
Input Energy Weighted Density           ... 1.wmp2.tmp
Input Wavefunction Amplitudes           ... 1.mp2tsaa.tmp

Nuclear repulsion gradient              ... done (  0.0 sec)
HCore & Overlap gradient  (SHARK)       ... done (  0.1 sec)
Analytic two-electron gradient terms    ... 
  Batch handling in the gradient evaluation:
  General contraction                   ... not used
  Memory available                      ... 4087.4 MB
  Memory per occupied orbital in Q2     ...    3.0 MB
  Memory per occupied orbital in Q3     ...    0.0 MB
  Total memory requirement per |i>      ...    3.0 MB
  Number of orbitals treated per batch  ...     21
  Number of batches to be done          ...      1
done (  6.3 sec)

---------------------------------------
MP2 TOTAL ENERGY:     -720.446820791 Eh
---------------------------------------

The final MP2 gradient
  0:  -0.00003228   0.00001709  -0.00001783
  1:  -0.00005892  -0.00000821  -0.00001429
  2:  -0.00001324   0.00000131   0.00000005
  3:  -0.00003799   0.00000352   0.00001832
  4:   0.00003289   0.00002637  -0.00008415
  5:   0.00005330  -0.00000965   0.00005304
  6:   0.00001085  -0.00000683  -0.00000480
  7:   0.00007750  -0.00000513  -0.00002500
  8:   0.00000743   0.00005732  -0.00001507
  9:  -0.00000588  -0.00002933   0.00000172
 10:  -0.00014498   0.00004130   0.00002432
 11:   0.00001933  -0.00000464   0.00000437
 12:   0.00009516  -0.00007419   0.00003378
 13:  -0.00000314  -0.00000893   0.00002554

-----------------------------------
NORM OF THE MP2 GRADIENT:  0.000271
-----------------------------------

Maximum memory used throughout the entire MP2-calculation: 233.7 MB

-------------------------   --------------------
FINAL SINGLE POINT ENERGY      -720.446820791110
-------------------------   --------------------

                                *** OPTIMIZATION RUN DONE ***


------------------------------------------------------------------------------
                              ORCA PROPERTY CALCULATIONS
------------------------------------------------------------------------------

GBWName                                 ... 1.gbw
Number of atoms                         ...     14
Number of basis functions               ...    137
Max core memory                         ...   4096 MB

Electric properties:
Dipole moment                           ... YES
Quadrupole moment                       ...  NO
Static polarizability (Dipole/Dipole)   ...  NO
Static polarizability (Dipole/Quad.)    ...  NO
Static polarizability (Quad./Quad.)     ...  NO
Static polarizability (Velocity)        ...  NO
Static hyperpolarizability              ...  NO

Atomic electric properties:
Dipole moment                           ...  NO
Quadrupole moment                       ...  NO
Static polarizability                   ...  NO

Choice of electric origin               ... Center of mass
Position of electric origin             ...    -3.786087     2.731772     1.027523

General magnetic properties:
Magnetizability                         ...  NO

EPR properties:
g-Tensor (aka g-matrix)                 ...  NO
Zero-Field splitting spin-orbit         ...  NO
Zero-field splitting spin-spin          ...  NO
Hyperfine couplings                     ...  NO (   0 nuclei)
Quadrupole couplings                    ...  NO (   0 nuclei)
Contact density                         ...  NO (   0 nuclei)

NMR properties:
Chemical shifts                         ...  NO (   0 nuclei)
Spin-rotation constants                 ...  NO (   0 nuclei)
Spin-spin couplings                     ...  NO (   0 nuclei,    0 pairs)

Choice of magnetic origin               ... GIAO
Position of magnetic origin             ...     0.000000     0.000000     0.000000

Properties with geometric perturbations:
SCF Hessian                             ...  NO
IR spectrum                             ...  NO
VCD spectrum                            ...  NO
X-ray spectroscopy properties:
SCF XES/XAS/RIXS spectra                ...  NO

SCF SOC stabilization energy            ...  NO
Diagonal Born-Oppenheimer correction    ...  NO

-------------
DIPOLE MOMENT
-------------

Method             : SCF
Type of density    : Electron Density
Multiplicity       :   1
Irrep              :   0
Energy             :  -719.3864036662782837 Eh
Basis              : AO
                                X                 Y                 Z
Electronic contribution:      0.193827320      -1.793242828       1.621155333
Nuclear contribution   :      0.734690797       2.029480221      -2.588852086
                        -----------------------------------------
Total Dipole Moment    :      0.928518117       0.236237394      -0.967696752
                        -----------------------------------------
Magnitude (a.u.)       :      1.361760260
Magnitude (Debye)      :      3.461319505



--------------------
Rotational spectrum 
--------------------
 
Rotational constants in cm-1:             0.144439             0.039019             0.033606 
Rotational constants in MHz :          4330.165386          1169.771629          1007.484077 

Dipole components along the rotational axes: 
x,y,z [a.u.] :    -0.948006    -0.928715     0.305225 
x,y,z [Debye]:    -2.409641    -2.360607     0.775821 

 

-------------
DIPOLE MOMENT
-------------

Method             : MP2
Type of density    : Electron Density
Multiplicity       :   1
Level              : Unrelaxed density
Irrep              :   0
Energy             :     0.0000000000000000 Eh
Basis              : AO
                                X                 Y                 Z
Electronic contribution:      0.201122237      -1.812094383       1.638453784
Nuclear contribution   :      0.734690797       2.029480221      -2.588852086
                        -----------------------------------------
Total Dipole Moment    :      0.935813035       0.217385838      -0.950398302
                        -----------------------------------------
Magnitude (a.u.)       :      1.351391716
Magnitude (Debye)      :      3.434964762



--------------------
Rotational spectrum 
--------------------
 
Rotational constants in cm-1:             0.144439             0.039019             0.033606 
Rotational constants in MHz :          4330.165386          1169.771629          1007.484077 

Dipole components along the rotational axes: 
x,y,z [a.u.] :    -0.958005    -0.904491     0.300637 
x,y,z [Debye]:    -2.435054    -2.299034     0.764158 

 

-------------
DIPOLE MOMENT
-------------

Method             : MP2
Type of density    : Electron Density
Multiplicity       :   1
Level              : Relaxed density
Irrep              :   0
Energy             :     0.0000000000000000 Eh
Basis              : AO
                                X                 Y                 Z
Electronic contribution:      0.262286855      -1.891347210       1.693912210
Nuclear contribution   :      0.734690797       2.029480221      -2.588852086
                        -----------------------------------------
Total Dipole Moment    :      0.996977652       0.138133011      -0.894939876
                        -----------------------------------------
Magnitude (a.u.)       :      1.346834270
Magnitude (Debye)      :      3.423380653



--------------------
Rotational spectrum 
--------------------
 
Rotational constants in cm-1:             0.144439             0.039019             0.033606 
Rotational constants in MHz :          4330.165386          1169.771629          1007.484077 

Dipole components along the rotational axes: 
x,y,z [a.u.] :    -1.031324    -0.818050     0.284827 
x,y,z [Debye]:    -2.621418    -2.079319     0.723972 

 

Dipole moment calculation done in   0.0 sec 

Maximum memory used throughout the entire PROP-calculation: 6.7 MB

--------------------------------
SUGGESTED CITATIONS FOR THIS RUN
--------------------------------

Below you find a list of papers that are relevant to this ORCA run
We neither can nor want to force you to cite these papers, but we appreciate if you do
You receive ORCA, which is the product of decades of hard work by many enthusiastic individuals, for free
The only thing we kindly ask in return is that you cite our papers,
We deeply appreciate it, if you show your appreciation for ORCA by not just citing the generic ORCA reference.

Please note that relegating all ORCA citations to the supporting information does *not* help us.
SI sections are not indexed - citations you put there will not count into any citation statistics
But we need these citations in order to attract the funding resources that allow us to do what we are doing

Therefore, if you are a happy ORCA user, please consider citing a few of the papers listed below in the main body of your paper

In addition to the list printed below, the program has created the file 1.bibtex that contains the list in bibtex format
You can import this file easily into all common literature databanks and citation aid programs


List of essential papers. We consider these as the minimum necessary citations

  1. Neese, F.
     Software update: the ORCA program system, version 6.0
     WIRES Comput. Molec. Sci. 2025 15(1), e70019
     doi.org/10.1002/wcms.7019

List of papers to cite with high priority. The work reported in these papers was absolutely
necessary for this run to complete.
Our perspective: the developers of density functionals and basis sets usually get cited in chemistry papers
Good! But without the algorithms to do something with them, the functionals or basis sets would not do anything.
Hence, in our opinion, the algorithm design and method developments papers are equally worthy of getting cited

  1. Neese, F.
     The SHARK Integral Generation and Digestion System
     J. Comp. Chem. 2022 44(3), 381
     doi.org/10.1002/jcc.26942

List of suggested additional citations. These are papers that are important in the 'surrounding' of 
of this run, or papers that preceded the highly important papers. If you like your results we are grateful for a citation.

  1. Neese, F.
     The ORCA program system
     WIRES Comput. Molec. Sci. 2012 2(1), 73-78
     doi.org/10.1002/wcms.81
  2. Neese, F.
     Software update: the ORCA program system, version 4.0
     WIRES Comput. Molec. Sci. 2018 8(1), 1-6
     doi.org/10.1002/wcms.1327
  3. Neese, F.; Wennmohs, F.; Becker, U.; Riplinger, C.
     The ORCA quantum chemistry program package
     J. Chem. Phys. 2020 152(22), 224108
     doi.org/10.1063/5.0004608
  4. Neese, F.
     Software update: The ORCA program system—Version 5.0
     WIRES Comput. Molec. Sci. 2022 12(1), e1606
     doi.org/10.1002/wcms.1606

List of optional additional citations

  1. Neese, F.
     Approximate second-order SCF convergence for spin unrestricted wavefunctions
     Chem. Phys. Lett. 2000 325(1-3), 93-98
     doi.org/10.1016/s0009-2614(00)00662-x

Timings for individual modules:

Sum of individual times          ...      247.089 sec (=   4.118 min)
Startup calculation              ...        2.647 sec (=   0.044 min)   1.1 %
SCF iterations                   ...       58.233 sec (=   0.971 min)  23.6 %
Property calculations            ...        0.036 sec (=   0.001 min)   0.0 %
MP2 module                       ...      186.164 sec (=   3.103 min)  75.3 %
Geometry relaxation              ...        0.009 sec (=   0.000 min)   0.0 %
                             ****ORCA TERMINATED NORMALLY****
TOTAL RUN TIME: 0 days 0 hours 4 minutes 7 seconds 265 msec
