
                                 *****************
                                 * O   R   C   A *
                                 *****************

                                            #,                                       
                                            ###                                      
                                            ####                                     
                                            #####                                    
                                            ######                                   
                                           ########,                                 
                                     ,,################,,,,,                         
                               ,,#################################,,                 
                          ,,##########################################,,             
                       ,#########################################, ''#####,          
                    ,#############################################,,   '####,        
                  ,##################################################,,,,####,       
                ,###########''''           ''''###############################       
              ,#####''   ,,,,##########,,,,          '''####'''          '####       
            ,##' ,,,,###########################,,,                        '##       
           ' ,,###''''                  '''############,,,                           
         ,,##''                                '''############,,,,        ,,,,,,###''
      ,#''                                            '''#######################'''  
     '                                                          ''''####''''         
             ,#######,   #######,   ,#######,      ##                                
            ,#'     '#,  ##    ##  ,#'     '#,    #''#        ,####,    ,#,          
            ##       ##  ##   ,#'  ##            #'  '#       #'       ,# #          
            ##       ##  #######   ##           ,######,      #####,      #          
            '#,     ,#'  ##    ##  '#,     ,#' ,#      #,     #,   #      #          
             '#######'   ##     ##  '#######'  #'      '#     '####' #    #          



                #########################################################
                #                        -***-                          #
                #          Department of theory and spectroscopy        #
                #                                                       #
                #                      Frank Neese                      #
                #                                                       #
                #     Directorship, Architecture, Infrastructure        #
                #                    SHARK, DRIVERS                     #
                #        Core code/Algorithms in most modules           #
                #                                                       #
                #        Max Planck Institute fuer Kohlenforschung      #
                #                Kaiser Wilhelm Platz 1                 #
                #                 D-45470 Muelheim/Ruhr                 #
                #                      Germany                          #
                #                                                       #
                #                  All rights reserved                  #
                #                        -***-                          #
                #########################################################


                         Program Version 6.1.0  -  RELEASE   -
                                (GIT: $679e74b$)
                          ($2025-06-10 18:02:51 +0200$)


 With contributions from (in alphabetic order):
[Max-Planck-Institut fuer Kohlenforschung]                               
  Daniel Aravena         : Magnetic Suceptibility                        
  Michael Atanasov       : Ab Initio Ligand Field Theory (pilot matlab implementation)
  Alexander A. Auer      : GIAO ZORA, VPT2 properties, NMR spectrum      
  Ute Becker             : All parallelization in ORCA, NUMFREQ, NUMCALC 
  Giovanni Bistoni       : ED, misc. LED, open-shell LED, HFLD           
  Dmytro Bykov           : pre 5.0 version of the SCF Hessian            
  Marcos Casanova-Páez   : Triplet and SCS-CIS(D). UHF-(DLPNO)-IP/EA/STEOM-CCSD. UHF-CVS-IP/STEOM-CCSD   
  Vijay G. Chilkuri      : MRCI spin determinant printing, contributions to CSF-ICE 
  Pauline Colinet        : FMM embedding                                 
  Dipayan Datta          : RHF DLPNO-CCSD density                        
  Achintya Kumar Dutta   : EOM-CC, STEOM-CC                              
  Nicolas Foglia         : Exact transition moments, OPA infrastructure, MCD improvements    
  Dmitry Ganyushin       : Spin-Orbit,Spin-Spin,Magnetic field MRCI      
  Miquel Garcia-Rates    : C-PCM and meta-GGA Hessian, CCSD/C-PCM, Gaussian charge scheme 
  Tiago L. C. Gouveia    : GS-ROHF, GS-ROCIS                             
  Yang Guo               : DLPNO-NEVPT2, F12-NEVPT2, CIM, IAO-localization        
  Andreas Hansen         : Spin unrestricted coupled pair/coupled cluster methods 
  Ingolf Harden          : AUTO-CI MPn and infrastructure                
  Benjamin Helmich-Paris : MC-RPA, TRAH-(SCF,CASSCF), AVAS, COSX integrals, SCF dyn. polar., MC-PDFT, srDFT 
  Lee Huntington         : MR-EOM, pCC                                   
  Robert Izsak           : Overlap fitted RIJCOSX, COSX-SCS-MP3, EOM     
  Riya Kayal             : Wick's Theorem for AUTO-CI, AUTO-CI UHF-CCSDT 
  Emily Kempfer          : AUTO-CI RHF CISDT and CCSDT, approximate NEVPT4
  Christian Kollmar      : KDIIS, OOCD, Brueckner-CCSD(T), CCSD density, CASPT2, CASPT2-K, improved NEVPT2 
  Axel Koslowski         : Symmetry handling                             
  Simone Kossmann        : meta-GGA functionals, TD-DFT gradient, OOMP2, (MP2 Hessian; deprecated post 5.0) 
  Lucas Lang             : DCDCAS, Hyperfine gauge corrections, ICE-SOC+SSC
  Marvin Lechner         : AUTO-CI (C++ implementation), FIC-MRCC        
  Spencer Leger          : CASSCF response                               
  Dagmar Lenk            : GEPOL surface, SMD, ORCA-2-JSON               
  Dimitrios Liakos       : Extrapolation schemes; Compound Job, Property file
  Dimitrios Manganas     : Further ROCIS development; embedding schemes. LFT, Crystal Embedding 
  Dimitrios Pantazis     : SARC Basis sets                               
  Anastasios Papadopoulos: AUTO-CI, single reference methods and gradients 
  Taras Petrenko         : pre 6.0 DFT Hessian and TD-DFT gradient,  ECA, NRVS 
  Petra Pikulova         : Analytic Raman intensities                    
  Peter Pinski           : DLPNO-MP2, DLPNO-MP2 Gradient                 
  Shashank Vittal Rao    : ES-AILFT, MagRelax                            
  Christoph Reimann      : Effective Core Potentials                     
  Marius Retegan         : Local ZFS, SOC                                
  Christoph Riplinger    : Optimizer, TS searches, QM/MM, DLPNO-CCSD(T), (RO)-DLPNO pert. Triples 
  Michael Roemelt        : Original ROCIS implementation, recursive CI coupling coefficients
  Masaaki Saitow         : Open-shell DLPNO-CCSD energy and density      
  Barbara Sandhoefer     : DKH picture change effects                    
  Yorick L. A. Schmerwitz: GMF and freeze-and-release deltaSCF, NEB S-IDPP initial path                    
  Kantharuban Sivalingam : CASSCF convergence/infrastructure, NEVPT2, NEVPT3, NEVPT4(SD), FIC-MRCI and CEPA variants
  Bernardo de Souza      : ESD, SOC TD-DFT                               
  Georgi L. Stoychev     : AutoAux, RI-MP2 NMR, DLPNO-MP2 response, X2C  
  Van Anh Tran           : RI-MP2 g-tensors                              
  Willem Van den Heuvel  : Paramagnetic NMR                              
  Zikuan Wang            : NOTCH, Electric field optimization            
  Frank Wennmohs         : Technical directorship and infrastructure     
  Hang Xu                : AUTO-CI-Response properties                   
                                                                         
[FACCTs GmbH]                                                            
  Markus Bursch, Nicolas Foglia, Miquel Garcia-Rates, Ingolf Harden, Hagen Neugebauer, Anastasios Papadopoulos, 
  Christoph Riplinger, Bernardo de Souza, Georgi L. Stoychev                                                    
                                                                 
  APM, various basis sets, CI-OPT, improved COSX, DLPNO-Multilevel,           
  DOCKER, DRACO, updates on ESD, Fragmentator, GOAT, IRC, LR-CPCM, L-BFGS, MBIS, meta-GGA TD-DFT gradient, ML-optimized integration grids, 
  MM, NACMEs, nearIR, NEB, NEB-TS, NL-DFT gradient (VV10), 2- and 3-layer-ONIOM, interface openCOSMO-RS, QMMM,   
  Crystal-QMMM, RESP, rigid body optimization, SF, symmetry and pop. for TD-DFT, various functionals, SOLVATOR                                   
                                                                         
[Other institutions]                                                     
  V. Asgeirsson          : NEB                                           
  Christoph Bannwarth    : sTDA-DFT, sTD-DFT, PBEh-3c, B97-3c, D3        
  Giovanni Bistoni       : ETS/NOCV, ADLD/ADEX, COVALED                  
  Martin Brehm           : Molecular dynamics                            
  Ronald Cardenas        : ETS/NOCV                                      
  Martina Colucci        : COVALED                                       
  Sebastian Ehlert       : rSCAN, r2SCAN, r2SCAN-3c, D4, dhf basis sets  
  Marvin Friede          : D4 for Fr, Ra, Ac-Lr                          
  Lars Goerigk           : TD-DFT with DH, B97 family of functionals     
  Stefan Grimme          : VdW corrections, initial TS optimization, DFT functionals, gCP, sTDA/sTD-DF 
  Waldemar Hujo          : DFT-NL                                        
  H. Jonsson             : NEB                                           
  Holger Kruse           : gCP                                           
  Marcel Mueller         : wB97X-3c, vDZP basis set                      
  Hagen Neugebauer       : wr2SCAN, Native XTB                           
  Gianluca Regni         : ADLD/ADEX                                     
  Tobias Risthaus        : pre 6.0 range-separated hybrid DFT and stability analysis
  Lukas Wittmann         : regularized MP2, r2SCAN double-hybrids, wr2SCAN        
                                                                         
We gratefully acknowledge several colleagues who have allowed us to      
interface, adapt or use parts of their codes:                            
  Ed Valeev, F. Pavosevic, A. Kumar             : LibInt (2-el integral package), F12 methods 
  Garnet Chan, S. Sharma, J. Yang, R. Olivares  : DMRG                   
  Ulf Ekstrom                                   : XCFun DFT Library      
  Mihaly Kallay                                 : mrcc  (arbitrary order and MRCC methods)
  Frank Weinhold                                : gennbo (NPA and NBO analysis)           
  Simon Mueller                                 : openCOSMO-RS                            
  Christopher J. Cramer and Donald G. Truhlar   : smd solvation model                     
  S Lehtola, MJT Oliveira, MAL Marques          : LibXC Library                           
  Liviu Ungur et al                             : ANISO software                          


 Your calculation uses the libint2 library for the computation of 2-el integrals
 For citations please refer to: http://libint.valeyev.net

 Your ORCA version has been built with support for libXC version: 7.0.0
 For citations please refer to: https://libxc.gitlab.io

 This ORCA versions uses:
   CBLAS   interface :  Fast vector & matrix operations
   LAPACKE interface :  Fast linear algebra routines
   SCALAPACK package :  Parallel linear algebra routines
   Shared memory     :  Shared parallel matrices
   BLAS/LAPACK       :  OpenBLAS 0.3.29  USE64BITINT DYNAMIC_ARCH NO_AFFINITY Haswell SINGLE_THREADED
        Core in use  :  Haswell
   Copyright (c) 2011-2014, The OpenBLAS Project


  ***********************************
  * Starting time: Sat Aug 16 15:51:48 2025
  * Host name:     CHEMLAB02
  * Process ID:    1906786
  * Working dir.:  /home/vivek/mm-project/vivek/xtb-goat/MP2/a/3
  ***********************************



***************************************
The coordinates will be read from file: /home/vivek/mm-project/vivek/xtb-goat/xtb-goat/a/A_CONF/3.xyz
***************************************


================================================================================

----- Orbital basis set information -----
Your calculation utilizes the basis: 6-31G**
   H-He, Li-Ne : W. J. Hehre, R. Ditchfield and J.A. Pople, J. Chem. Phys. 56, 2257 (1972).
                 Note: He and Ne are unpublished basis sets taken from the Gaussian program.
                 Note: Li and B from J. D. Dill and J. A. Pople, J. Chem. Phys. 62, 2921 (1975).
   Na - Ar     : M. M. Francl, W. J. Pietro, W. J. Hehre, J. S. Binkley, M. S. Gordon, 
                 D. J. DeFrees and J. A. Pople, J. Chem. Phys. 77, 3654 (1982).
   K - Zn      : V. A. Rassolov, J. A. Pople, M. A. Ratner, and T. L. Windus, J. Chem. Phys. 109, 1223 (1998).

================================================================================
                                        WARNINGS
                       Please study these warnings very carefully!
================================================================================


WARNING: No MP2 level density has been requested!
         To calculate MP2 level properties use
         %mp2 Density relaxed end
         or
         %mp2 Density unrelaxed end

WARNING: Post HF methods need fully converged wavefunctions
  ===> : Setting SCFConvForced true
         You can overwrite this default with %scf ConvForced false 


================================================================================
                                       INPUT FILE
================================================================================
NAME = 3.inp
|  1> ! MP2 6-31G** 
|  2> 
|  3> * xyzfile 0 1 /home/vivek/mm-project/vivek/xtb-goat/xtb-goat/a/A_CONF/3.xyz
|  4> 
|  5>                          ****END OF INPUT****
================================================================================

                       ****************************
                       * Single Point Calculation *
                       ****************************

---------------------------------
CARTESIAN COORDINATES (ANGSTROEM)
---------------------------------
  C     -4.586903   -0.075067   -1.604585
  O     -3.915197   -0.393843   -0.656649
  O     -4.124048    0.727556   -2.568531
  C     -5.984876   -0.626868   -1.873399
  H     -3.214888    1.003899   -2.369139
  C     -6.739009    0.142519   -2.948375
  H     -6.187957    0.125652   -3.884971
  N     -5.872603   -2.031106   -2.250890
  H     -7.707116   -0.324763   -3.102454
  H     -6.882035    1.176054   -2.646845
  H     -6.535183   -0.595090   -0.925300
  H     -5.345795   -2.121500   -3.114108
  H     -5.390112   -2.553015   -1.527176

----------------------------
CARTESIAN COORDINATES (A.U.)
----------------------------
  NO LB      ZA    FRAG     MASS         X           Y           Z
   0 C     6.0000    0    12.011   -8.667990   -0.141856   -3.032226
   1 O     8.0000    0    15.999   -7.398650   -0.744256   -1.240887
   2 O     8.0000    0    15.999   -7.793321    1.374881   -4.853820
   3 C     6.0000    0    12.011  -11.309777   -1.184609   -3.540212
   4 H     1.0000    0     1.008   -6.075257    1.897094   -4.477025
   5 C     6.0000    0    12.011  -12.734882    0.269322   -5.571621
   6 H     1.0000    0     1.008  -11.693544    0.237448   -7.341531
   7 N     7.0000    0    14.007  -11.097611   -3.838234   -4.253566
   8 H     1.0000    0     1.008  -14.564338   -0.613712   -5.862789
   9 H     1.0000    0     1.008  -13.005162    2.222421   -5.001811
  10 H     1.0000    0     1.008  -12.349705   -1.124556   -1.748564
  11 H     1.0000    0     1.008  -10.102089   -4.009053   -5.884811
  12 H     1.0000    0     1.008  -10.185835   -4.824499   -2.885945

--------------------------------
INTERNAL COORDINATES (ANGSTROEM)
--------------------------------
 C      0   0   0     0.000000000000     0.00000000     0.00000000
 O      1   0   0     1.204736106999     0.00000000     0.00000000
 O      1   2   0     1.337022418425   122.21589747     0.00000000
 C      1   2   3     1.526786226320   123.60188565   175.03699106
 H      3   1   2     0.970924815311   110.30150439   358.85758419
 C      4   1   2     1.521921735055   113.28843646   167.53506697
 H      6   4   1     1.086809820536   110.46365224    58.85072193
 N      4   1   2     1.458419577691   108.84871449   290.25020104
 H      6   4   1     1.085966285934   108.93062999   178.35708490
 H      6   4   1     1.086081218356   110.50159508   298.51329238
 H      4   1   2     1.096694502584   107.26364345    45.54677840
 H      8   4   1     1.015303972226   110.22644816   297.12799372
 H      8   4   1     1.014370658881   110.32523737    56.68641138

---------------------------
INTERNAL COORDINATES (A.U.)
---------------------------
 C      0   0   0     0.000000000000     0.00000000     0.00000000
 O      1   0   0     2.276621305875     0.00000000     0.00000000
 O      1   2   0     2.526606205736   122.21589747     0.00000000
 C      1   2   3     2.885207832789   123.60188565   175.03699106
 H      3   1   2     1.834781997566   110.30150439   358.85758419
 C      4   1   2     2.876015276516   113.28843646   167.53506697
 H      6   4   1     2.053772920469   110.46365224    58.85072193
 N      4   1   2     2.756013590184   108.84871449   290.25020104
 H      6   4   1     2.052178871087   108.93062999   178.35708490
 H      6   4   1     2.052396061888   110.50159508   298.51329238
 H      4   1   2     2.072452262461   107.26364345    45.54677840
 H      8   4   1     1.918646450190   110.22644816   297.12799372
 H      8   4   1     1.916882743571   110.32523737    56.68641138

---------------------
BASIS SET INFORMATION
---------------------
There are 4 groups of distinct atoms

 Group   1 Type C   : 10s4p1d contracted to 3s2p1d pattern {631/31/1}
 Group   2 Type O   : 10s4p1d contracted to 3s2p1d pattern {631/31/1}
 Group   3 Type H   : 4s1p contracted to 2s1p pattern {31/1}
 Group   4 Type N   : 10s4p1d contracted to 3s2p1d pattern {631/31/1}

Atom   0C    basis set group =>   1
Atom   1O    basis set group =>   2
Atom   2O    basis set group =>   2
Atom   3C    basis set group =>   1
Atom   4H    basis set group =>   3
Atom   5C    basis set group =>   1
Atom   6H    basis set group =>   3
Atom   7N    basis set group =>   4
Atom   8H    basis set group =>   3
Atom   9H    basis set group =>   3
Atom  10H    basis set group =>   3
Atom  11H    basis set group =>   3
Atom  12H    basis set group =>   3
------------------------------------------------------------------------------
                             ORCA STARTUP CALCULATIONS
------------------------------------------------------------------------------
------------------------------------------------------------------------------
                   ___                                                        
                  /   \      - P O W E R E D   B Y -                         
                 /     \                                                     
                 |  |  |   _    _      __       _____    __    __             
                 |  |  |  | |  | |    /  \     |  _  \  |  |  /  |          
                  \  \/   | |  | |   /    \    | | | |  |  | /  /          
                 / \  \   | |__| |  /  /\  \   | |_| |  |  |/  /          
                |  |  |   |  __  | /  /__\  \  |    /   |      \           
                |  |  |   | |  | | |   __   |  |    \   |  |\   \          
                \     /   | |  | | |  |  |  |  | |\  \  |  | \   \       
                 \___/    |_|  |_| |__|  |__|  |_| \__\ |__|  \__/        
                                                                              
                      - O R C A' S   B I G   F R I E N D -                    
                                      &                                       
                       - I N T E G R A L  F E E D E R -                       
                                                                              
 v1 FN, 2020, v2 2021, v3 2022-2024                                           
------------------------------------------------------------------------------


----------------------
SHARK INTEGRAL PACKAGE
----------------------

Number of atoms                             ...     13
Number of basis functions                   ...    119
Number of shells                            ...     57
Maximum angular momentum                    ...      2
Integral batch strategy                     ... SHARK/LIBINT Hybrid
RI-J (if used) integral strategy            ... SPLIT-RIJ (Revised 2003 algorithm where possible)
Printlevel                                  ...      1
Contraction scheme used                     ... SEGMENTED contraction
Prescreening option                         ... SCHWARTZ
   Thresh                                   ... 1.000e-10
   Tcut                                     ... 1.000e-11
   Tpresel                                  ... 1.000e-11 
Coulomb Range Separation                    ... NOT USED
Exchange Range Separation                   ... NOT USED
Multipole approximations                    ... NOT USED
Finite Nucleus Model                        ... NOT USED
CABS basis                                  ... NOT available
Auxiliary Coulomb fitting basis             ... NOT available
Auxiliary J/K fitting basis                 ... NOT available
Auxiliary Correlation fitting basis         ... NOT available
Auxiliary 'external' fitting basis          ... NOT available

Checking pre-screening integrals            ... done (  0.0 sec) Dimension = 57
   => SHARK Basis and OBASIS are compatible. Storing Pre-screening
Shell pair information
Shell pair cut-off parameter TPreSel        ...   1.0e-11
Total number of shell pairs                 ...      1653
Shell pairs after pre-screening             ...      1595
Total number of primitive shell pairs       ...      8022
Primitive shell pairs kept                  ...      5530
          la=0 lb=0:    505 shell pairs
          la=1 lb=0:    584 shell pairs
          la=1 lb=1:    182 shell pairs
          la=2 lb=0:    190 shell pairs
          la=2 lb=1:    113 shell pairs
          la=2 lb=2:     21 shell pairs

Checking whether 4 symmetric matrices of dimension 119 fit in memory
:Max Core in MB      =   4096.00
 MB in use           =      3.42
 MB left             =   4092.58
 MB needed           =      0.22
 Data fit in memory  = YES
Calculating Nuclear repulsion               ... done (  0.0 sec) ENN=    250.603947714723 Eh

Diagonalization of the overlap matrix:
Smallest eigenvalue                        ... 3.657e-03
Time for diagonalization                   ...    0.001 sec
Threshold for overlap eigenvalues          ... 1.000e-07
Number of eigenvalues below threshold      ... 0
Time for construction of square roots      ...    0.000 sec
Total time needed                          ...    0.001 sec

-------------------
DFT GRID GENERATION
-------------------

General Integration Accuracy     IntAcc      ... 4.388
Radial Grid Type                 RadialGrid  ... OptM3 with GC (2021)
Angular Grid (max. ang.)         AngularGrid ... 4 (Lebedev-302)
Angular grid pruning method      GridPruning ... 4 (adaptive)
Weight generation scheme         WeightScheme... mBecke (2022)
Basis function cutoff            BFCut       ... 1.0000e-10
Integration weight cutoff        WCut        ... 1.0000e-14
Partially contracted basis set               ... off
Rotationally invariant grid construction     ... off
Angular grids for H and He will be reduced by one unit

Total number of grid points                  ...    58950
Total number of batches                      ...      927
Average number of points per batch           ...       63
Average number of grid points per atom       ...     4535
Grids setup in   0.2 sec
Initializing property integral containers    ... done (  0.0 sec)

SHARK setup successfully completed in   0.2 seconds

Maximum memory used throughout the entire STARTUP-calculation: 22.7 MB
-------------------------------------------------------------------------------
                                 ORCA GUESS
                   Start orbitals & Density for SCF / CASSCF
-------------------------------------------------------------------------------

------------
SCF SETTINGS
------------
Hamiltonian:
 Ab initio Hamiltonian  Method          .... Hartree-Fock(GTOs)


General Settings:
 Integral files         IntName         .... 3
 Hartree-Fock type      HFTyp           .... RHF
 Total Charge           Charge          ....    0
 Multiplicity           Mult            ....    1
 Number of Electrons    NEL             ....   48
 Basis Dimension        Dim             ....  119
 Nuclear Repulsion      ENuc            ....    250.6039477147 Eh

Convergence Acceleration:
 AO-DIIS                CNVDIIS         .... on
   Start iteration      DIISMaxIt       ....    12
   Startup error        DIISStart       ....  0.200000
   # of expansion vecs  DIISMaxEq       ....     5
   Bias factor          DIISBfac        ....   1.050
   Max. coefficient     DIISMaxC        ....  10.000
 MO-DIIS                CNVKDIIS        .... off
 Trust-Rad. Augm. Hess. CNVTRAH         .... auto
   Auto Start mean grad. ratio tolernc. ....  1.125000
   Auto Start start iteration           ....    50
   Auto Start num. interpolation iter.  ....    10
   Max. Number of Micro iterations      ....    24
   Max. Number of Macro iterations      .... Maxiter - #DIIS iter
   Number of Davidson start vectors     ....     2
   Converg. threshold    (grad. norm)   ....   5.000e-05
   Grad. Scal. Fac. for Micro threshold ....   0.100
   Minimum threshold for Micro iter.    ....   1.000e-02
   NR start threshold (gradient norm)   ....   1.000e-04
   Initial trust radius                 ....   0.400
   Minimum AH scaling param. (alpha)    ....   1.000
   Maximum AH scaling param. (alpha)    .... 1000.000
   Quad. conv. algorithm                .... NR
   White noise on init. David. guess    .... on
   Maximum white noise                  ....   0.010
   Pseudo random numbers                .... off
   Inactive MOs                         .... canonical
   Orbital update algorithm             .... Taylor
   Preconditioner                       .... Diag
   Full preconditioner red. dimension   ....   250
 SOSCF                 CNVSOSCF           .... on
   Start iteration     SOSCFMaxIt         ....   150
   Startup grad/error  SOSCFStart         ....  0.003300
   Hessian update      SOSCFHessUp        .... L-BFGS
   Autom. constraints  SOSCFAutoConstrain .... off
 Level Shifting         CNVShift        .... on
   Level shift para.    LevelShift      ....    0.2500
   Turn off err/grad.   ShiftErr        ....    0.0010
 Zerner damping         CNVZerner       .... off
 Static damping         CNVDamp         .... on
   Fraction old density DampFac         ....    0.7000
   Max. Damping (<1)    DampMax         ....    0.9800
   Min. Damping (>=0)   DampMin         ....    0.0000
   Turn off err/grad.   DampErr         ....    0.1000

SCF Procedure:
 Maximum # iterations   MaxIter         ....   125
 SCF integral mode      SCFMode         .... Direct
   Integral package                     .... SHARK and LIBINT hybrid scheme
 Reset frequency        DirectResetFreq ....    20
 Integral Threshold     Thresh          ....  1.000e-10 Eh
 Primitive CutOff       TCut            ....  1.000e-11 Eh

Convergence Tolerance:
 Convergence Check Mode ConvCheckMode   .... Total+1el-Energy
 Convergence forced     ConvForced      .... 1
 Energy Change          TolE            ....  1.000e-06 Eh
 1-El. energy change                    ....  1.000e-03 Eh
 Orbital Gradient       TolG            ....  5.000e-05
 Orbital Rotation angle TolX            ....  5.000e-05
 DIIS Error             TolErr          ....  1.000e-06

------------------------------
INITIAL GUESS: MODEL POTENTIAL
------------------------------
Loading Hartree-Fock densities                     ... done
Calculating cut-offs                               ... done
Initializing the effective Hamiltonian             ... done
Setting up the integral package (SHARK)            ... done
Starting the Coulomb interaction                   ... done (   0.0 sec)
Making the grid                                    ... done (   0.0 sec)
Mapping shells                                     ... done
Starting the XC term evaluation                    ... done (   0.0 sec)
Transforming the Hamiltonian                       ... done (   0.0 sec)
Diagonalizing the Hamiltonian                      ... done (   0.0 sec)
Back transforming the eigenvectors                 ... done (   0.0 sec)
Now organizing SCF variables                       ... done
                      ------------------
                      INITIAL GUESS DONE (   0.1 sec)
                      ------------------
             **** ENERGY FILE WAS UPDATED (3.en.tmp) ****
Finished Guess after   0.1 sec
Maximum memory used throughout the entire GUESS-calculation: 7.3 MB

-------------------------------------------------------------------------------------------
                                      ORCA LEAN-SCF
                              memory conserving SCF solver
-------------------------------------------------------------------------------------------

----------------------------------------D-I-I-S--------------------------------------------
Iteration    Energy (Eh)           Delta-E    RMSDP     MaxDP     DIISErr   Damp  Time(sec)
-------------------------------------------------------------------------------------------
               ***  Starting incremental Fock matrix formation  ***
    1    -321.5836589979614928     0.00e+00  3.20e-03  6.72e-02  2.54e-01  0.700   0.5
    2    -321.6916942432519591    -1.08e-01  2.37e-03  4.81e-02  1.58e-01  0.700   0.4
                               ***Turning on AO-DIIS***
    3    -321.7540550360778298    -6.24e-02  1.25e-03  2.10e-02  8.98e-02  0.700   0.4
    4    -321.7931178307744631    -3.91e-02  2.84e-03  4.50e-02  6.08e-02  0.000   0.4
    5    -321.8795880690660169    -8.65e-02  3.55e-04  4.58e-03  4.98e-03  0.000   0.4
                              *** Initializing SOSCF ***
---------------------------------------S-O-S-C-F--------------------------------------
Iteration    Energy (Eh)           Delta-E    RMSDP     MaxDP     MaxGrad    Time(sec)
--------------------------------------------------------------------------------------
    6    -321.8799602003472273    -3.72e-04  1.79e-04  2.46e-03  2.72e-03     0.4
               *** Restarting incremental Fock matrix formation ***
    7    -321.8800474079598644    -8.72e-05  1.10e-04  1.74e-03  1.61e-03     0.5
    8    -321.8800748150333675    -2.74e-05  1.22e-04  1.66e-03  4.86e-04     0.4
    9    -321.8800844533278678    -9.64e-06  2.24e-05  2.98e-04  2.60e-04     0.4
   10    -321.8800853297460662    -8.76e-07  8.64e-06  9.90e-05  6.88e-05     0.4
                 **** Energy Check signals convergence ****

               *****************************************************
               *                     SUCCESS                       *
               *           SCF CONVERGED AFTER  10 CYCLES          *
               *****************************************************

             **** ENERGY FILE WAS UPDATED (3.en.tmp) ****

----------------
TOTAL SCF ENERGY
----------------

Total Energy       :       -321.88008542977593 Eh           -8758.80241 eV

Components:
Nuclear Repulsion  :        250.60394771472318 Eh            6819.28010 eV
Electronic Energy  :       -572.48403314449911 Eh          -15578.08252 eV
One Electron Energy:       -936.59897097311330 Eh          -25486.15369 eV
Two Electron Energy:        364.11493782861419 Eh            9908.07117 eV

Virial components:
Potential Energy   :       -643.34541018256323 Eh          -17506.31862 eV
Kinetic Energy     :        321.46532475278735 Eh            8747.51620 eV
Virial Ratio       :          2.00129021902225

---------------
SCF CONVERGENCE
---------------

  Last Energy change         ...    8.7642e-07  Tolerance :   1.0000e-06
  Last MAX-Density change    ...    9.9041e-05  Tolerance :   1.0000e-05
  Last RMS-Density change    ...    8.6397e-06  Tolerance :   1.0000e-06
  Last DIIS Error            ...    2.7199e-03  Tolerance :   1.0000e-06
  Last Orbital Gradient      ...    6.8796e-05  Tolerance :   5.0000e-05
  Last Orbital Rotation      ...    1.1961e-04  Tolerance :   5.0000e-05


----------------
ORBITAL ENERGIES
----------------

  NO   OCC          E(Eh)            E(eV) 
   0   2.0000     -20.620543      -561.1135 
   1   2.0000     -20.551288      -559.2290 
   2   2.0000     -15.555841      -423.2960 
   3   2.0000     -11.383170      -309.7518 
   4   2.0000     -11.276405      -306.8466 
   5   2.0000     -11.220875      -305.3355 
   6   2.0000      -1.470206       -40.0063 
   7   2.0000      -1.360766       -37.0283 
   8   2.0000      -1.201537       -32.6955 
   9   2.0000      -1.017028       -27.6747 
  10   2.0000      -0.900909       -24.5150 
  11   2.0000      -0.814695       -22.1690 
  12   2.0000      -0.703026       -19.1303 
  13   2.0000      -0.687260       -18.7013 
  14   2.0000      -0.678099       -18.4520 
  15   2.0000      -0.639509       -17.4019 
  16   2.0000      -0.600529       -16.3412 
  17   2.0000      -0.582302       -15.8452 
  18   2.0000      -0.550229       -14.9725 
  19   2.0000      -0.528250       -14.3744 
  20   2.0000      -0.509996       -13.8777 
  21   2.0000      -0.477476       -12.9928 
  22   2.0000      -0.457845       -12.4586 
  23   2.0000      -0.396765       -10.7965 
  24   0.0000       0.180019         4.8986 
  25   0.0000       0.212532         5.7833 
  26   0.0000       0.243839         6.6352 
  27   0.0000       0.271271         7.3817 
  28   0.0000       0.283553         7.7159 
  29   0.0000       0.318899         8.6777 
  30   0.0000       0.329879         8.9765 
  31   0.0000       0.338465         9.2101 
  32   0.0000       0.393883        10.7181 
  33   0.0000       0.427817        11.6415 
  34   0.0000       0.453092        12.3293 
*Only the first 10 virtual orbitals were printed.

                    ********************************
                    * MULLIKEN POPULATION ANALYSIS *
                    ********************************

-----------------------
MULLIKEN ATOMIC CHARGES
-----------------------
   0 C :    0.792391
   1 O :   -0.593511
   2 O :   -0.636298
   3 C :   -0.036842
   4 H :    0.371768
   5 C :   -0.314730
   6 H :    0.127479
   7 N :   -0.688183
   8 H :    0.137404
   9 H :    0.122162
  10 H :    0.162215
  11 H :    0.268018
  12 H :    0.288126
Sum of atomic charges:   -0.0000000

--------------------------------
MULLIKEN REDUCED ORBITAL CHARGES
--------------------------------
  0 C s       :     2.948467  s :     2.948467
      pz      :     0.643172  p :     2.113206
      px      :     0.834103
      py      :     0.635930
      dz2     :     0.037628  d :     0.145936
      dxz     :     0.034254
      dyz     :     0.032821
      dx2y2   :     0.023825
      dxy     :     0.017408

  1 O s       :     3.874367  s :     3.874367
      pz      :     1.458261  p :     4.686598
      px      :     1.648516
      py      :     1.579821
      dz2     :     0.010447  d :     0.032545
      dxz     :     0.008116
      dyz     :     0.006570
      dx2y2   :     0.002566
      dxy     :     0.004847

  2 O s       :     3.835301  s :     3.835301
      pz      :     1.661431  p :     4.775553
      px      :     1.447364
      py      :     1.666759
      dz2     :     0.006227  d :     0.025444
      dxz     :     0.005021
      dyz     :     0.007191
      dx2y2   :     0.005602
      dxy     :     0.001405

  3 C s       :     3.223651  s :     3.223651
      pz      :     1.061553  p :     2.742387
      px      :     0.878197
      py      :     0.802636
      dz2     :     0.014042  d :     0.070804
      dxz     :     0.011575
      dyz     :     0.011056
      dx2y2   :     0.017005
      dxy     :     0.017126

  4 H s       :     0.586807  s :     0.586807
      pz      :     0.007468  p :     0.041424
      px      :     0.024495
      py      :     0.009461

  5 C s       :     3.246646  s :     3.246646
      pz      :     0.986553  p :     3.026973
      px      :     1.026984
      py      :     1.013435
      dz2     :     0.008849  d :     0.041111
      dxz     :     0.009991
      dyz     :     0.006185
      dx2y2   :     0.009359
      dxy     :     0.006728

  6 H s       :     0.859660  s :     0.859660
      pz      :     0.007250  p :     0.012861
      px      :     0.003758
      py      :     0.001853

  7 N s       :     3.612067  s :     3.612067
      pz      :     1.189878  p :     4.041542
      px      :     1.685122
      py      :     1.166542
      dz2     :     0.003908  d :     0.034574
      dxz     :     0.012617
      dyz     :     0.006165
      dx2y2   :     0.007955
      dxy     :     0.003929

  8 H s       :     0.849836  s :     0.849836
      pz      :     0.001937  p :     0.012760
      px      :     0.007590
      py      :     0.003233

  9 H s       :     0.865058  s :     0.865058
      pz      :     0.002298  p :     0.012780
      px      :     0.001967
      py      :     0.008515

 10 H s       :     0.825665  s :     0.825665
      pz      :     0.007423  p :     0.012120
      px      :     0.003635
      py      :     0.001062

 11 H s       :     0.705879  s :     0.705879
      pz      :     0.013171  p :     0.026103
      px      :     0.008890
      py      :     0.004042

 12 H s       :     0.685770  s :     0.685770
      pz      :     0.009955  p :     0.026103
      px      :     0.008436
      py      :     0.007713



                     *******************************
                     * LOEWDIN POPULATION ANALYSIS *
                     *******************************

----------------------
LOEWDIN ATOMIC CHARGES
----------------------
   0 C :    0.228345
   1 O :   -0.316880
   2 O :   -0.207543
   3 C :   -0.017635
   4 H :    0.200903
   5 C :   -0.177418
   6 H :    0.071513
   7 N :   -0.275803
   8 H :    0.076762
   9 H :    0.070161
  10 H :    0.084140
  11 H :    0.127385
  12 H :    0.136069

-------------------------------
LOEWDIN REDUCED ORBITAL CHARGES
-------------------------------
  0 C s       :     2.851077  s :     2.851077
      pz      :     0.875181  p :     2.605467
      px      :     0.984000
      py      :     0.746285
      dz2     :     0.080902  d :     0.315111
      dxz     :     0.074028
      dyz     :     0.075255
      dx2y2   :     0.050269
      dxy     :     0.034656

  1 O s       :     3.548997  s :     3.548997
      pz      :     1.501334  p :     4.710815
      px      :     1.653886
      py      :     1.555595
      dz2     :     0.015321  d :     0.057068
      dxz     :     0.019164
      dyz     :     0.010668
      dx2y2   :     0.005566
      dxy     :     0.006348

  2 O s       :     3.458885  s :     3.458885
      pz      :     1.648611  p :     4.700312
      px      :     1.416928
      py      :     1.634773
      dz2     :     0.010538  d :     0.048346
      dxz     :     0.008992
      dyz     :     0.012687
      dx2y2   :     0.009742
      dxy     :     0.006388

  3 C s       :     2.871739  s :     2.871739
      pz      :     1.065692  p :     3.005576
      px      :     0.998446
      py      :     0.941438
      dz2     :     0.025951  d :     0.140320
      dxz     :     0.022126
      dyz     :     0.021820
      dx2y2   :     0.034633
      dxy     :     0.035790

  4 H s       :     0.678787  s :     0.678787
      pz      :     0.024239  p :     0.120310
      px      :     0.067760
      py      :     0.028311

  5 C s       :     2.906978  s :     2.906978
      pz      :     1.055653  p :     3.196945
      px      :     1.074343
      py      :     1.066948
      dz2     :     0.016230  d :     0.073495
      dxz     :     0.018093
      dyz     :     0.011539
      dx2y2   :     0.015819
      dxy     :     0.011815

  6 H s       :     0.887903  s :     0.887903
      pz      :     0.022071  p :     0.040584
      px      :     0.011868
      py      :     0.006645

  7 N s       :     3.192967  s :     3.192967
      pz      :     1.179649  p :     4.021841
      px      :     1.635850
      py      :     1.206342
      dz2     :     0.008953  d :     0.060994
      dxz     :     0.016937
      dyz     :     0.014247
      dx2y2   :     0.013464
      dxy     :     0.007392

  8 H s       :     0.882665  s :     0.882665
      pz      :     0.007067  p :     0.040573
      px      :     0.023122
      py      :     0.010384

  9 H s       :     0.889763  s :     0.889763
      pz      :     0.007884  p :     0.040075
      px      :     0.007143
      py      :     0.025048

 10 H s       :     0.877011  s :     0.877011
      pz      :     0.022049  p :     0.038850
      px      :     0.011715
      py      :     0.005085

 11 H s       :     0.791087  s :     0.791087
      pz      :     0.038338  p :     0.081527
      px      :     0.029962
      py      :     0.013228

 12 H s       :     0.781534  s :     0.781534
      pz      :     0.029898  p :     0.082397
      px      :     0.028566
      py      :     0.023933



                      *****************************
                      * MAYER POPULATION ANALYSIS *
                      *****************************

  NA   - Mulliken gross atomic population
  ZA   - Total nuclear charge
  QA   - Mulliken gross atomic charge
  VA   - Mayer's total valence
  BVA  - Mayer's bonded valence
  FA   - Mayer's free valence

  ATOM       NA         ZA         QA         VA         BVA        FA
  0 C      5.2076     6.0000     0.7924     3.6690     3.6690    -0.0000
  1 O      8.5935     8.0000    -0.5935     1.8833     1.8833    -0.0000
  2 O      8.6363     8.0000    -0.6363     1.8366     1.8366    -0.0000
  3 C      6.0368     6.0000    -0.0368     3.7610     3.7610    -0.0000
  4 H      0.6282     1.0000     0.3718     0.8729     0.8729     0.0000
  5 C      6.3147     6.0000    -0.3147     3.8203     3.8203     0.0000
  6 H      0.8725     1.0000     0.1275     0.9548     0.9548     0.0000
  7 N      7.6882     7.0000    -0.6882     2.7515     2.7515    -0.0000
  8 H      0.8626     1.0000     0.1374     0.9506     0.9506     0.0000
  9 H      0.8778     1.0000     0.1222     0.9529     0.9529     0.0000
 10 H      0.8378     1.0000     0.1622     0.9390     0.9390    -0.0000
 11 H      0.7320     1.0000     0.2680     0.9068     0.9068    -0.0000
 12 H      0.7119     1.0000     0.2881     0.9021     0.9021     0.0000

  Mayer bond orders larger than 0.100000
B(  0-C ,  1-O ) :   1.8169 B(  0-C ,  2-O ) :   0.9753 B(  0-C ,  3-C ) :   0.9086 
B(  2-O ,  4-H ) :   0.8400 B(  3-C ,  5-C ) :   0.9669 B(  3-C ,  7-N ) :   0.9631 
B(  3-C , 10-H ) :   0.9629 B(  5-C ,  6-H ) :   0.9666 B(  5-C ,  8-H ) :   0.9680 
B(  5-C ,  9-H ) :   0.9720 B(  7-N , 11-H ) :   0.9062 B(  7-N , 12-H ) :   0.8986 


-------
TIMINGS
-------

Total SCF time: 0 days 0 hours 0 min 4 sec 

Total time                  ....       4.565 sec
Sum of individual times     ....       4.215 sec  ( 92.3%)

SCF preparation             ....       0.013 sec  (  0.3%)
Fock matrix formation       ....       4.183 sec  ( 91.6%)
  Startup                   ....       0.000 sec  (  0.0% of F)
  Coulomb+Exchange Fock     ....       4.527 sec  (108.2% of F)
Diagonalization             ....       0.000 sec  (  0.0%)
Density matrix formation    ....       0.002 sec  (  0.0%)
Total Energy calculation    ....       0.000 sec  (  0.0%)
Population analysis         ....       0.001 sec  (  0.0%)
Orbital Transformation      ....       0.002 sec  (  0.0%)
Orbital Orthonormalization  ....       0.000 sec  (  0.0%)
DIIS solution               ....       0.009 sec  (  0.2%)
SOSCF solution              ....       0.004 sec  (  0.1%)
Finished LeanSCF after   4.6 sec

Maximum memory used throughout the entire LEANSCF-calculation: 10.6 MB

------------------------------------------------------------------------------
                                ORCA  MP2 
------------------------------------------------------------------------------

Freezing NCore=12 chemical core electrons

----------
MP2 ENERGY (disk based algorithm)
----------

Dimension of the basis                      ...  119
Memory devoted to MP2                       ... 4096 MB   
Data format for buffers                     ... DOUBLE
Compression type for matrix containers      ... UNCOMPRESSED

-------------------------
SHARK HALF TRANSFORMATION (Exchange order)
-------------------------

Number of basis functions                   ...    119
Number of operators                         ...      1
   Operator  0:    6-  23 (p-index in (p*|q*))
   Operator  0:    6-  23 (q-index in (p*|q*)
Integral generator used                     ... SHARK
Contraction scheme used                     ... SEGMENTED CONTRACTION
MaxCore in resort                           ...   4096 MB

Half transformed integrals for op=   0      ... 3.SHARK_MNPQ0.tmp
Resorted half transformed integrals         ... 3.KAO_aa.tmp

Half trafo (segmented) done. Total time =  2.5 sec. integrals=  2.4 sec trafo=  0.1 sec

----------------------
SHARK INTEGRAL SORTING (Exchange)
----------------------

Input container                             ... 3.SHARK_MNPQ0.tmp
Output container                            ... 3.KAO_aa.tmp
Range of AO-indices                         ...    0 -  118
Range of bra indices i                      ...    6 -   23
Range of ket indices j                      ...    6 -   23
Symmetric i,j range                         ... YES
Number of (i,j) pairs generated             ...  171
Max Core memory in MB                       ...   4096

Available core memory in MB                 ...   4090.99
MB needed for one item                      ...      0.11
Fixed MB needed                             ...      0.00
Number of items                             ...       171
Number of batches                           ...         1
Items treated per batch                     ...       171
Batch   0                                   ...      0-   170 (   171)
   => Closing output file and leaving
done (  0.0 sec)

SHARK half integral transformation done. Total time =  2.5 sec.


Finished integral transformation - now doing MP2 part

OPERATOR COMBINATION   0   0: ij=(  6.. 23,  6.. 23)
  Internal MO   8
  Internal MO  11
  Internal MO  14
  Internal MO  17
  Internal MO  20
  Internal MO  23
-----------------------------------------------
 MP2 CORRELATION ENERGY   :     -0.935117002 Eh
-----------------------------------------------


-------
TIMINGS
-------
Total time                :    2.532 sec
Integral trafo            :    2.512 sec ( 99.2%)
K(i,j)                    :    0.015 sec (  0.6%)
T(i,j)                    :    0.001 sec (  0.0%)

---------------------------------------
MP2 TOTAL ENERGY:     -322.815202432 Eh
---------------------------------------

Maximum memory used throughout the entire MP2-calculation: 29.8 MB

-------------------------   --------------------
FINAL SINGLE POINT ENERGY      -322.815202431816
-------------------------   --------------------


------------------------------------------------------------------------------
                              ORCA PROPERTY CALCULATIONS
------------------------------------------------------------------------------

GBWName                                 ... 3.gbw
Number of atoms                         ...     13
Number of basis functions               ...    119
Max core memory                         ...   4096 MB

Electric properties:
Dipole moment                           ... YES
Quadrupole moment                       ...  NO
Static polarizability (Dipole/Dipole)   ...  NO
Static polarizability (Dipole/Quad.)    ...  NO
Static polarizability (Quad./Quad.)     ...  NO
Static polarizability (Velocity)        ...  NO
Static hyperpolarizability              ...  NO

Atomic electric properties:
Dipole moment                           ...  NO
Quadrupole moment                       ...  NO
Static polarizability                   ...  NO

Choice of electric origin               ... Center of mass
Position of electric origin             ...    -9.765101    -0.703018    -3.776004

General magnetic properties:
Magnetizability                         ...  NO

EPR properties:
g-Tensor (aka g-matrix)                 ...  NO
Zero-Field splitting spin-orbit         ...  NO
Zero-field splitting spin-spin          ...  NO
Hyperfine couplings                     ...  NO (   0 nuclei)
Quadrupole couplings                    ...  NO (   0 nuclei)
Contact density                         ...  NO (   0 nuclei)

NMR properties:
Chemical shifts                         ...  NO (   0 nuclei)
Spin-rotation constants                 ...  NO (   0 nuclei)
Spin-spin couplings                     ...  NO (   0 nuclei,    0 pairs)

Choice of magnetic origin               ... GIAO
Position of magnetic origin             ...     0.000000     0.000000     0.000000

Properties with geometric perturbations:
SCF Hessian                             ...  NO
IR spectrum                             ...  NO
VCD spectrum                            ...  NO
X-ray spectroscopy properties:
SCF XES/XAS/RIXS spectra                ...  NO

SCF SOC stabilization energy            ...  NO
Diagonal Born-Oppenheimer correction    ...  NO

-------------
DIPOLE MOMENT
-------------

Method             : SCF
Type of density    : Electron Density
Multiplicity       :   1
Irrep              :   0
Energy             :  -321.8800854297759315 Eh
Basis              : AO
                                X                 Y                 Z
Electronic contribution:      4.907745880       0.999917627       2.764751898
Nuclear contribution   :     -4.746001008      -0.635484789      -3.351254226
                        -----------------------------------------
Total Dipole Moment    :      0.161744872       0.364432838      -0.586502328
                        -----------------------------------------
Magnitude (a.u.)       :      0.709195091
Magnitude (Debye)      :      1.802630665



--------------------
Rotational spectrum 
--------------------
 
Rotational constants in cm-1:             0.168951             0.106105             0.077015 
Rotational constants in MHz :          5065.014484          3180.947022          2308.857575 

Dipole components along the rotational axes: 
x,y,z [a.u.] :     0.024472     0.607081    -0.365803 
x,y,z [Debye]:     0.062202     1.543076    -0.929798 

 

Dipole moment calculation done in   0.0 sec 

Maximum memory used throughout the entire PROP-calculation: 5.1 MB

--------------------------------
SUGGESTED CITATIONS FOR THIS RUN
--------------------------------

Below you find a list of papers that are relevant to this ORCA run
We neither can nor want to force you to cite these papers, but we appreciate if you do
You receive ORCA, which is the product of decades of hard work by many enthusiastic individuals, for free
The only thing we kindly ask in return is that you cite our papers,
We deeply appreciate it, if you show your appreciation for ORCA by not just citing the generic ORCA reference.

Please note that relegating all ORCA citations to the supporting information does *not* help us.
SI sections are not indexed - citations you put there will not count into any citation statistics
But we need these citations in order to attract the funding resources that allow us to do what we are doing

Therefore, if you are a happy ORCA user, please consider citing a few of the papers listed below in the main body of your paper

In addition to the list printed below, the program has created the file 3.bibtex that contains the list in bibtex format
You can import this file easily into all common literature databanks and citation aid programs


List of essential papers. We consider these as the minimum necessary citations

  1. Neese, F.
     Software update: the ORCA program system, version 6.0
     WIRES Comput. Molec. Sci. 2025 15(1), e70019
     doi.org/10.1002/wcms.7019

List of papers to cite with high priority. The work reported in these papers was absolutely
necessary for this run to complete.
Our perspective: the developers of density functionals and basis sets usually get cited in chemistry papers
Good! But without the algorithms to do something with them, the functionals or basis sets would not do anything.
Hence, in our opinion, the algorithm design and method developments papers are equally worthy of getting cited

  1. Neese, F.
     The SHARK Integral Generation and Digestion System
     J. Comp. Chem. 2022 44(3), 381
     doi.org/10.1002/jcc.26942

List of suggested additional citations. These are papers that are important in the 'surrounding' of 
of this run, or papers that preceded the highly important papers. If you like your results we are grateful for a citation.

  1. Neese, F.
     The ORCA program system
     WIRES Comput. Molec. Sci. 2012 2(1), 73-78
     doi.org/10.1002/wcms.81
  2. Neese, F.
     Software update: the ORCA program system, version 4.0
     WIRES Comput. Molec. Sci. 2018 8(1), 1-6
     doi.org/10.1002/wcms.1327
  3. Neese, F.; Wennmohs, F.; Becker, U.; Riplinger, C.
     The ORCA quantum chemistry program package
     J. Chem. Phys. 2020 152(22), 224108
     doi.org/10.1063/5.0004608
  4. Neese, F.
     Software update: The ORCA program system—Version 5.0
     WIRES Comput. Molec. Sci. 2022 12(1), e1606
     doi.org/10.1002/wcms.1606

List of optional additional citations

  1. Neese, F.
     Approximate second-order SCF convergence for spin unrestricted wavefunctions
     Chem. Phys. Lett. 2000 325(1-3), 93-98
     doi.org/10.1016/s0009-2614(00)00662-x

Timings for individual modules:

Sum of individual times          ...        7.495 sec (=   0.125 min)
Startup calculation              ...        0.232 sec (=   0.004 min)   3.1 %
SCF iterations                   ...        4.688 sec (=   0.078 min)  62.5 %
Property calculations            ...        0.021 sec (=   0.000 min)   0.3 %
MP2 module                       ...        2.554 sec (=   0.043 min)  34.1 %
                             ****ORCA TERMINATED NORMALLY****
TOTAL RUN TIME: 0 days 0 hours 0 minutes 7 seconds 530 msec
