
                                 *****************
                                 * O   R   C   A *
                                 *****************

                                            #,                                       
                                            ###                                      
                                            ####                                     
                                            #####                                    
                                            ######                                   
                                           ########,                                 
                                     ,,################,,,,,                         
                               ,,#################################,,                 
                          ,,##########################################,,             
                       ,#########################################, ''#####,          
                    ,#############################################,,   '####,        
                  ,##################################################,,,,####,       
                ,###########''''           ''''###############################       
              ,#####''   ,,,,##########,,,,          '''####'''          '####       
            ,##' ,,,,###########################,,,                        '##       
           ' ,,###''''                  '''############,,,                           
         ,,##''                                '''############,,,,        ,,,,,,###''
      ,#''                                            '''#######################'''  
     '                                                          ''''####''''         
             ,#######,   #######,   ,#######,      ##                                
            ,#'     '#,  ##    ##  ,#'     '#,    #''#        ,####,    ,#,          
            ##       ##  ##   ,#'  ##            #'  '#       #'       ,# #          
            ##       ##  #######   ##           ,######,      #####,      #          
            '#,     ,#'  ##    ##  '#,     ,#' ,#      #,     #,   #      #          
             '#######'   ##     ##  '#######'  #'      '#     '####' #    #          



                #########################################################
                #                        -***-                          #
                #          Department of theory and spectroscopy        #
                #                                                       #
                #                      Frank Neese                      #
                #                                                       #
                #     Directorship, Architecture, Infrastructure        #
                #                    SHARK, DRIVERS                     #
                #        Core code/Algorithms in most modules           #
                #                                                       #
                #        Max Planck Institute fuer Kohlenforschung      #
                #                Kaiser Wilhelm Platz 1                 #
                #                 D-45470 Muelheim/Ruhr                 #
                #                      Germany                          #
                #                                                       #
                #                  All rights reserved                  #
                #                        -***-                          #
                #########################################################


                         Program Version 6.1.0  -  RELEASE   -
                                (GIT: $679e74b$)
                          ($2025-06-10 18:02:51 +0200$)


 With contributions from (in alphabetic order):
[Max-Planck-Institut fuer Kohlenforschung]                               
  Daniel Aravena         : Magnetic Suceptibility                        
  Michael Atanasov       : Ab Initio Ligand Field Theory (pilot matlab implementation)
  Alexander A. Auer      : GIAO ZORA, VPT2 properties, NMR spectrum      
  Ute Becker             : All parallelization in ORCA, NUMFREQ, NUMCALC 
  Giovanni Bistoni       : ED, misc. LED, open-shell LED, HFLD           
  Dmytro Bykov           : pre 5.0 version of the SCF Hessian            
  Marcos Casanova-Páez   : Triplet and SCS-CIS(D). UHF-(DLPNO)-IP/EA/STEOM-CCSD. UHF-CVS-IP/STEOM-CCSD   
  Vijay G. Chilkuri      : MRCI spin determinant printing, contributions to CSF-ICE 
  Pauline Colinet        : FMM embedding                                 
  Dipayan Datta          : RHF DLPNO-CCSD density                        
  Achintya Kumar Dutta   : EOM-CC, STEOM-CC                              
  Nicolas Foglia         : Exact transition moments, OPA infrastructure, MCD improvements    
  Dmitry Ganyushin       : Spin-Orbit,Spin-Spin,Magnetic field MRCI      
  Miquel Garcia-Rates    : C-PCM and meta-GGA Hessian, CCSD/C-PCM, Gaussian charge scheme 
  Tiago L. C. Gouveia    : GS-ROHF, GS-ROCIS                             
  Yang Guo               : DLPNO-NEVPT2, F12-NEVPT2, CIM, IAO-localization        
  Andreas Hansen         : Spin unrestricted coupled pair/coupled cluster methods 
  Ingolf Harden          : AUTO-CI MPn and infrastructure                
  Benjamin Helmich-Paris : MC-RPA, TRAH-(SCF,CASSCF), AVAS, COSX integrals, SCF dyn. polar., MC-PDFT, srDFT 
  Lee Huntington         : MR-EOM, pCC                                   
  Robert Izsak           : Overlap fitted RIJCOSX, COSX-SCS-MP3, EOM     
  Riya Kayal             : Wick's Theorem for AUTO-CI, AUTO-CI UHF-CCSDT 
  Emily Kempfer          : AUTO-CI RHF CISDT and CCSDT, approximate NEVPT4
  Christian Kollmar      : KDIIS, OOCD, Brueckner-CCSD(T), CCSD density, CASPT2, CASPT2-K, improved NEVPT2 
  Axel Koslowski         : Symmetry handling                             
  Simone Kossmann        : meta-GGA functionals, TD-DFT gradient, OOMP2, (MP2 Hessian; deprecated post 5.0) 
  Lucas Lang             : DCDCAS, Hyperfine gauge corrections, ICE-SOC+SSC
  Marvin Lechner         : AUTO-CI (C++ implementation), FIC-MRCC        
  Spencer Leger          : CASSCF response                               
  Dagmar Lenk            : GEPOL surface, SMD, ORCA-2-JSON               
  Dimitrios Liakos       : Extrapolation schemes; Compound Job, Property file
  Dimitrios Manganas     : Further ROCIS development; embedding schemes. LFT, Crystal Embedding 
  Dimitrios Pantazis     : SARC Basis sets                               
  Anastasios Papadopoulos: AUTO-CI, single reference methods and gradients 
  Taras Petrenko         : pre 6.0 DFT Hessian and TD-DFT gradient,  ECA, NRVS 
  Petra Pikulova         : Analytic Raman intensities                    
  Peter Pinski           : DLPNO-MP2, DLPNO-MP2 Gradient                 
  Shashank Vittal Rao    : ES-AILFT, MagRelax                            
  Christoph Reimann      : Effective Core Potentials                     
  Marius Retegan         : Local ZFS, SOC                                
  Christoph Riplinger    : Optimizer, TS searches, QM/MM, DLPNO-CCSD(T), (RO)-DLPNO pert. Triples 
  Michael Roemelt        : Original ROCIS implementation, recursive CI coupling coefficients
  Masaaki Saitow         : Open-shell DLPNO-CCSD energy and density      
  Barbara Sandhoefer     : DKH picture change effects                    
  Yorick L. A. Schmerwitz: GMF and freeze-and-release deltaSCF, NEB S-IDPP initial path                    
  Kantharuban Sivalingam : CASSCF convergence/infrastructure, NEVPT2, NEVPT3, NEVPT4(SD), FIC-MRCI and CEPA variants
  Bernardo de Souza      : ESD, SOC TD-DFT                               
  Georgi L. Stoychev     : AutoAux, RI-MP2 NMR, DLPNO-MP2 response, X2C  
  Van Anh Tran           : RI-MP2 g-tensors                              
  Willem Van den Heuvel  : Paramagnetic NMR                              
  Zikuan Wang            : NOTCH, Electric field optimization            
  Frank Wennmohs         : Technical directorship and infrastructure     
  Hang Xu                : AUTO-CI-Response properties                   
                                                                         
[FACCTs GmbH]                                                            
  Markus Bursch, Nicolas Foglia, Miquel Garcia-Rates, Ingolf Harden, Hagen Neugebauer, Anastasios Papadopoulos, 
  Christoph Riplinger, Bernardo de Souza, Georgi L. Stoychev                                                    
                                                                 
  APM, various basis sets, CI-OPT, improved COSX, DLPNO-Multilevel,           
  DOCKER, DRACO, updates on ESD, Fragmentator, GOAT, IRC, LR-CPCM, L-BFGS, MBIS, meta-GGA TD-DFT gradient, ML-optimized integration grids, 
  MM, NACMEs, nearIR, NEB, NEB-TS, NL-DFT gradient (VV10), 2- and 3-layer-ONIOM, interface openCOSMO-RS, QMMM,   
  Crystal-QMMM, RESP, rigid body optimization, SF, symmetry and pop. for TD-DFT, various functionals, SOLVATOR                                   
                                                                         
[Other institutions]                                                     
  V. Asgeirsson          : NEB                                           
  Christoph Bannwarth    : sTDA-DFT, sTD-DFT, PBEh-3c, B97-3c, D3        
  Giovanni Bistoni       : ETS/NOCV, ADLD/ADEX, COVALED                  
  Martin Brehm           : Molecular dynamics                            
  Ronald Cardenas        : ETS/NOCV                                      
  Martina Colucci        : COVALED                                       
  Sebastian Ehlert       : rSCAN, r2SCAN, r2SCAN-3c, D4, dhf basis sets  
  Marvin Friede          : D4 for Fr, Ra, Ac-Lr                          
  Lars Goerigk           : TD-DFT with DH, B97 family of functionals     
  Stefan Grimme          : VdW corrections, initial TS optimization, DFT functionals, gCP, sTDA/sTD-DF 
  Waldemar Hujo          : DFT-NL                                        
  H. Jonsson             : NEB                                           
  Holger Kruse           : gCP                                           
  Marcel Mueller         : wB97X-3c, vDZP basis set                      
  Hagen Neugebauer       : wr2SCAN, Native XTB                           
  Gianluca Regni         : ADLD/ADEX                                     
  Tobias Risthaus        : pre 6.0 range-separated hybrid DFT and stability analysis
  Lukas Wittmann         : regularized MP2, r2SCAN double-hybrids, wr2SCAN        
                                                                         
We gratefully acknowledge several colleagues who have allowed us to      
interface, adapt or use parts of their codes:                            
  Ed Valeev, F. Pavosevic, A. Kumar             : LibInt (2-el integral package), F12 methods 
  Garnet Chan, S. Sharma, J. Yang, R. Olivares  : DMRG                   
  Ulf Ekstrom                                   : XCFun DFT Library      
  Mihaly Kallay                                 : mrcc  (arbitrary order and MRCC methods)
  Frank Weinhold                                : gennbo (NPA and NBO analysis)           
  Simon Mueller                                 : openCOSMO-RS                            
  Christopher J. Cramer and Donald G. Truhlar   : smd solvation model                     
  S Lehtola, MJT Oliveira, MAL Marques          : LibXC Library                           
  Liviu Ungur et al                             : ANISO software                          


 Your calculation uses the libint2 library for the computation of 2-el integrals
 For citations please refer to: http://libint.valeyev.net

 Your ORCA version has been built with support for libXC version: 7.0.0
 For citations please refer to: https://libxc.gitlab.io

 This ORCA versions uses:
   CBLAS   interface :  Fast vector & matrix operations
   LAPACKE interface :  Fast linear algebra routines
   SCALAPACK package :  Parallel linear algebra routines
   Shared memory     :  Shared parallel matrices
   BLAS/LAPACK       :  OpenBLAS 0.3.29  USE64BITINT DYNAMIC_ARCH NO_AFFINITY Haswell SINGLE_THREADED
        Core in use  :  Haswell
   Copyright (c) 2011-2014, The OpenBLAS Project


  ***********************************
  * Starting time: Sat Aug 30 15:17:33 2025
  * Host name:     chemlab03
  * Process ID:    77730
  * Working dir.:  /home/vivek/mm-project/vivek/xtb-goat/B97-D-opt/d/3
  ***********************************



***************************************
The coordinates will be read from file: /home/vivek/mm-project/vivek/xtb-goat/xtb-goat/d/D_CONF/3.xyz
***************************************


Your calculation utilizes empirical dispersion correction


Warning: RI is on but no J-basis has been assigned. Assigning Def2/J (nothing to worry about!)
================================================================================

----- Orbital basis set information -----
Your calculation utilizes the basis: 6-31G**
   H-He, Li-Ne : W. J. Hehre, R. Ditchfield and J.A. Pople, J. Chem. Phys. 56, 2257 (1972).
                 Note: He and Ne are unpublished basis sets taken from the Gaussian program.
                 Note: Li and B from J. D. Dill and J. A. Pople, J. Chem. Phys. 62, 2921 (1975).
   Na - Ar     : M. M. Francl, W. J. Pietro, W. J. Hehre, J. S. Binkley, M. S. Gordon, 
                 D. J. DeFrees and J. A. Pople, J. Chem. Phys. 77, 3654 (1982).
   K - Zn      : V. A. Rassolov, J. A. Pople, M. A. Ratner, and T. L. Windus, J. Chem. Phys. 109, 1223 (1998).

----- AuxJ basis set information -----
Your calculation utilizes the auxiliary basis: def2/J
   H-Rn: F. Weigend, Phys. Chem. Chem. Phys. 8, 1057 (2006).
   Fr-Lr: K. Eichkorn, F. Weigend, O. Treutler, R. Ahlrichs; Theor. Chem. Acc. 97, 119 (1997).

================================================================================
                                        WARNINGS
                       Please study these warnings very carefully!
================================================================================


WARNING: Geometry Optimization
  ===> : Switching off AutoStart
         For restart on a previous wavefunction, please use MOREAD

INFO   : The exchange functional is Grimme's B97(-D)
         As described in S. Grimme, J. Comput. Chem. 27, 1787 (2006).
         Note that this functional defaults to a pure GGA. 

INFO   : The correlation functional is Grimme's B97(-D)
         As described in S. Grimme, J. Comput. Chem. 27, 1787 (2006).

================================================================================
                                       INPUT FILE
================================================================================
NAME = 3.inp
|  1> ! B97-D 6-31G** opt
|  2> 
|  3> * xyzfile 0 1 /home/vivek/mm-project/vivek/xtb-goat/xtb-goat/d/D_CONF/3.xyz
|  4> 
|  5>                          ****END OF INPUT****
================================================================================

                       *****************************
                       * Geometry Optimization Run *
                       *****************************

Geometry optimization settings:
Update method            Update   .... BFGS
Choice of coordinates    CoordSys .... (2022) Redundant Internals
Initial Hessian          InHess   .... Almloef's Model
Max. no of cycles        MaxIter  .... 50

Convergence Tolerances:
Energy Change            TolE     ....  5.0000e-06 Eh
Max. Gradient            TolMAXG  ....  3.0000e-04 Eh/bohr
RMS Gradient             TolRMSG  ....  1.0000e-04 Eh/bohr
Max. Displacement        TolMAXD  ....  4.0000e-03 bohr
RMS Displacement         TolRMSD  ....  2.0000e-03 bohr
Strict Convergence                .... False

------------------------------------------------------------------------------
                        ORCA OPTIMIZATION COORDINATE SETUP
------------------------------------------------------------------------------

The optimization will be done in redundant internal coordinates (2022)
Making redundant internal coordinates   ...  (2022 redundants) done
Evaluating the initial hessian          ...  (Almloef) done
Evaluating the coordinates              ...  done
Calculating the B-matrix                .... done
Calculating the G-matrix                .... done
The number of degrees of freedom        ....   64

    -----------------------------------------------------------------
                    Redundant Internal Coordinates


    -----------------------------------------------------------------
         Definition                    Initial Value    Approx d2E/dq
    -----------------------------------------------------------------
      1. B(C   1,C   0)                  1.5099         0.402150   
      2. B(O   4,C   0)                  1.3368         0.680308   
      3. B(C   5,C   1)                  1.5436         0.355422   
      4. B(H   6,C   1)                  1.0897         0.360532   
      5. B(H   7,C   1)                  1.0882         0.362473   
      6. B(C   8,C   5)                  1.5309         0.372403   
      7. B(C   8,O   2)                  1.2012         1.119778   
      8. B(O   9,C   0)                  1.2012         1.119521   
      9. B(N  10,C   5)                  1.4437         0.459453   
     10. B(O  11,C   8)                  1.3355         0.683582   
     11. B(O  11,H   3)                  0.9708         0.499802   
     12. B(H  12,N  10)                  1.0146         0.425394   
     13. B(H  13,O   4)                  0.9710         0.499309   
     14. B(H  14,C   5)                  1.0984         0.349164   
     15. B(H  15,N  10)                  1.0164         0.422592   
     16. B(H  15,O   9)                  2.2494         0.010000   
     17. A(C   1,C   0,O   9)          125.3732         0.443690   
     18. A(C   1,C   0,O   4)          112.0005         0.405874   
     19. A(O   4,C   0,O   9)          122.6015         0.485221   
     20. A(C   5,C   1,H   7)          110.1760         0.322027   
     21. A(C   0,C   1,H   6)          109.3246         0.328342   
     22. A(H   6,C   1,H   7)          111.0207         0.291195   
     23. A(C   5,C   1,H   6)          107.7942         0.321744   
     24. A(C   0,C   1,C   5)          108.9373         0.364839   
     25. A(C   0,C   1,H   7)          109.5436         0.328634   
     26. A(C   0,O   4,H  13)          110.6815         0.373464   
     27. A(C   8,C   5,N  10)          113.6558         0.373938   
     28. A(C   1,C   5,N  10)          110.3882         0.370943   
     29. A(N  10,C   5,H  14)          108.6260         0.331871   
     30. A(C   8,C   5,H  14)          107.1597         0.322516   
     31. A(C   1,C   5,H  14)          108.4516         0.320062   
     32. A(C   1,C   5,C   8)          108.3972         0.360083   
     33. A(C   5,C   8,O  11)          112.0737         0.400748   
     34. A(O   2,C   8,O  11)          123.2504         0.485672   
     35. A(O   2,C   8,C   5)          124.6727         0.437592   
     36. A(H  12,N  10,H  15)          107.2347         0.301292   
     37. A(C   5,N  10,H  15)          110.0579         0.339638   
     38. A(C   5,N  10,H  12)          110.2521         0.340013   
     39. A(H   3,O  11,C   8)          110.7838         0.373837   
     40. D(H   6,C   1,C   0,O   9)     47.1825         0.011997   
     41. D(C   5,C   1,C   0,O   9)    -70.3787         0.011997   
     42. D(H   6,C   1,C   0,O   4)   -134.5962         0.011997   
     43. D(C   5,C   1,C   0,O   4)    107.8427         0.011997   
     44. D(H   7,C   1,C   0,O   4)    -12.7364         0.011997   
     45. D(H  13,O   4,C   0,O   9)      0.2699         0.034475   
     46. D(H  13,O   4,C   0,C   1)   -178.0086         0.034475   
     47. D(N  10,C   5,C   1,H   7)   -169.4294         0.010154   
     48. D(N  10,C   5,C   1,H   6)    -48.1447         0.010154   
     49. D(N  10,C   5,C   1,C   0)     70.3811         0.010154   
     50. D(C   8,C   5,C   1,H   7)     65.4900         0.010154   
     51. D(C   8,C   5,C   1,H   6)   -173.2253         0.010154   
     52. D(C   8,C   5,C   1,C   0)    -54.6995         0.010154   
     53. D(O   2,C   8,C   5,N  10)     -8.4652         0.010376   
     54. D(O   2,C   8,C   5,C   1)    114.6633         0.010376   
     55. D(O  11,C   8,C   5,N  10)    170.9079         0.010376   
     56. D(O  11,C   8,C   5,C   1)    -65.9636         0.010376   
     57. D(O   2,C   8,C   5,H  14)   -128.4781         0.010376   
     58. D(H  15,N  10,C   5,C   1)    -47.0398         0.018019   
     59. D(H  12,N  10,C   5,H  14)     76.0775         0.018019   
     60. D(H  12,N  10,C   5,C   8)    -43.1019         0.018019   
     61. D(H  15,N  10,C   5,C   8)     74.9919         0.018019   
     62. D(H  12,N  10,C   5,C   1)   -165.1336         0.018019   
     63. D(H   3,O  11,C   8,C   5)    179.1933         0.034838   
     64. D(H   3,O  11,C   8,O   2)     -1.4231         0.034838   
    -----------------------------------------------------------------

Number of atoms                         .... 16
Number of degrees of freedom            .... 64


         *************************************************************
         *                GEOMETRY OPTIMIZATION CYCLE   1            *
         *************************************************************
---------------------------------
CARTESIAN COORDINATES (ANGSTROEM)
---------------------------------
  C     -4.165492    1.164613    1.287679
  C     -3.881167    1.151304   -0.195186
  O     -2.519305    4.051007    0.972277
  H     -4.369331    4.903987   -0.180465
  O     -5.314688    1.785738    1.571697
  C     -2.724953    2.129790   -0.492356
  H     -3.557688    0.153800   -0.491388
  H     -4.774748    1.449684   -0.739878
  C     -3.096838    3.503027    0.072833
  O     -3.448319    0.709996    2.137361
  N     -1.480654    1.609184    0.022315
  O     -4.141940    4.040586   -0.561528
  H     -0.778226    2.340865    0.049390
  H     -5.463070    1.810652    2.530999
  H     -2.634957    2.241116   -1.581382
  H     -1.608434    1.278976    0.975092

----------------------------
CARTESIAN COORDINATES (A.U.)
----------------------------
  NO LB      ZA    FRAG     MASS         X           Y           Z
   0 C     6.0000    0    12.011   -7.871639    2.200799    2.433360
   1 C     6.0000    0    12.011   -7.334343    2.175649   -0.368849
   2 O     8.0000    0    15.999   -4.760797    7.655293    1.837337
   3 H     1.0000    0     1.008   -8.256839    9.267192   -0.341029
   4 O     8.0000    0    15.999  -10.043304    3.374555    2.970076
   5 C     6.0000    0    12.011   -5.149415    4.024720   -0.930417
   6 H     1.0000    0     1.008   -6.723056    0.290639   -0.928589
   7 H     1.0000    0     1.008   -9.022965    2.739505   -1.398167
   8 C     6.0000    0    12.011   -5.852176    6.619762    0.137635
   9 O     8.0000    0    15.999   -6.516378    1.341698    4.039027
  10 N     7.0000    0    14.007   -2.798031    3.040917    0.042169
  11 O     8.0000    0    15.999   -7.827132    7.635600   -1.061134
  12 H     1.0000    0     1.008   -1.470634    4.423594    0.093333
  13 H     1.0000    0     1.008  -10.323706    3.421637    4.782894
  14 H     1.0000    0     1.008   -4.979346    4.235095   -2.988379
  15 H     1.0000    0     1.008   -3.039501    2.416915    1.842657

--------------------------------
INTERNAL COORDINATES (ANGSTROEM)
--------------------------------
 C      0   0   0     0.000000000000     0.00000000     0.00000000
 C      1   0   0     1.509936001382     0.00000000     0.00000000
 O      1   2   0     3.337765654459    79.74382303     0.00000000
 H      3   1   2     2.340722551799    88.38732379    69.98807413
 O      1   2   3     1.336829649414   112.00054785    88.46490020
 C      2   1   3     1.543559429594   108.93725180    19.37779894
 H      2   1   3     1.089673767103   109.32464132   136.93894837
 H      2   1   3     1.088211933572   109.54356583   258.79871537
 C      3   1   2     1.201176041770    55.88297322    23.21086084
 O      1   2   3     1.201238692296   125.37317391   270.24350611
 N      6   2   1     1.443674434373   110.38818394    70.38110662
 O      4   3   1     0.970761184982    71.58320131   311.25582536
 H     11   6   2     1.014640593778   110.25213802   194.86641311
 H      5   1   2     0.971029645307   110.68152655   181.99140440
 H      6   2   1     1.098395059787   108.45155352   189.27627197
 H     11   6   2     1.016439700192   110.05794521   312.96023013

---------------------------
INTERNAL COORDINATES (A.U.)
---------------------------
 C      0   0   0     0.000000000000     0.00000000     0.00000000
 C      1   0   0     2.853365522360     0.00000000     0.00000000
 O      1   2   0     6.307462986135    79.74382303     0.00000000
 H      3   1   2     4.423324578394    88.38732379    69.98807413
 O      1   2   3     2.526241925098   112.00054785    88.46490020
 C      2   1   3     2.916904593364   108.93725180    19.37779894
 H      2   1   3     2.059184995142   109.32464132   136.93894837
 H      2   1   3     2.056422530116   109.54356583   258.79871537
 C      3   1   2     2.269893757573    55.88297322    23.21086084
 O      1   2   3     2.270012149909   125.37317391   270.24350611
 N      6   2   1     2.728149307509   110.38818394    70.38110662
 O      4   3   1     1.834472781058    71.58320131   311.25582536
 H     11   6   2     1.917392846599   110.25213802   194.86641311
 H      5   1   2     1.834980097549   110.68152655   181.99140440
 H      6   2   1     2.075665849849   108.45155352   189.27627197
 H     11   6   2     1.920792665008   110.05794521   312.96023013

---------------------
BASIS SET INFORMATION
---------------------
There are 4 groups of distinct atoms

 Group   1 Type C   : 10s4p1d contracted to 3s2p1d pattern {631/31/1}
 Group   2 Type O   : 10s4p1d contracted to 3s2p1d pattern {631/31/1}
 Group   3 Type H   : 4s1p contracted to 2s1p pattern {31/1}
 Group   4 Type N   : 10s4p1d contracted to 3s2p1d pattern {631/31/1}

Atom   0C    basis set group =>   1
Atom   1C    basis set group =>   1
Atom   2O    basis set group =>   2
Atom   3H    basis set group =>   3
Atom   4O    basis set group =>   2
Atom   5C    basis set group =>   1
Atom   6H    basis set group =>   3
Atom   7H    basis set group =>   3
Atom   8C    basis set group =>   1
Atom   9O    basis set group =>   2
Atom  10N    basis set group =>   4
Atom  11O    basis set group =>   2
Atom  12H    basis set group =>   3
Atom  13H    basis set group =>   3
Atom  14H    basis set group =>   3
Atom  15H    basis set group =>   3
---------------------------------
AUXILIARY/J BASIS SET INFORMATION
---------------------------------
There are 4 groups of distinct atoms

 Group   1 Type C   : 12s5p4d2f1g contracted to 6s4p3d1f1g pattern {711111/2111/211/2/1}
 Group   2 Type O   : 12s5p4d2f1g contracted to 6s4p3d1f1g pattern {711111/2111/211/2/1}
 Group   3 Type H   : 5s2p1d contracted to 3s1p1d pattern {311/2/1}
 Group   4 Type N   : 12s5p4d2f1g contracted to 6s4p3d1f1g pattern {711111/2111/211/2/1}

Atom   0C    basis set group =>   1
Atom   1C    basis set group =>   1
Atom   2O    basis set group =>   2
Atom   3H    basis set group =>   3
Atom   4O    basis set group =>   2
Atom   5C    basis set group =>   1
Atom   6H    basis set group =>   3
Atom   7H    basis set group =>   3
Atom   8C    basis set group =>   1
Atom   9O    basis set group =>   2
Atom  10N    basis set group =>   4
Atom  11O    basis set group =>   2
Atom  12H    basis set group =>   3
Atom  13H    basis set group =>   3
Atom  14H    basis set group =>   3
Atom  15H    basis set group =>   3
------------------------------------------------------------------------------
                             ORCA STARTUP CALCULATIONS
                           -- RI-GTO INTEGRALS CHOSEN --
------------------------------------------------------------------------------
------------------------------------------------------------------------------
                   ___                                                        
                  /   \      - P O W E R E D   B Y -                         
                 /     \                                                     
                 |  |  |   _    _      __       _____    __    __             
                 |  |  |  | |  | |    /  \     |  _  \  |  |  /  |          
                  \  \/   | |  | |   /    \    | | | |  |  | /  /          
                 / \  \   | |__| |  /  /\  \   | |_| |  |  |/  /          
                |  |  |   |  __  | /  /__\  \  |    /   |      \           
                |  |  |   | |  | | |   __   |  |    \   |  |\   \          
                \     /   | |  | | |  |  |  |  | |\  \  |  | \   \       
                 \___/    |_|  |_| |__|  |__|  |_| \__\ |__|  \__/        
                                                                              
                      - O R C A' S   B I G   F R I E N D -                    
                                      &                                       
                       - I N T E G R A L  F E E D E R -                       
                                                                              
 v1 FN, 2020, v2 2021, v3 2022-2024                                           
------------------------------------------------------------------------------


----------------------
SHARK INTEGRAL PACKAGE
----------------------

Number of atoms                             ...     16
Number of basis functions                   ...    161
Number of shells                            ...     75
Maximum angular momentum                    ...      2
Integral batch strategy                     ... SHARK/LIBINT Hybrid
RI-J (if used) integral strategy            ... SPLIT-RIJ (Revised 2003 algorithm where possible)
Printlevel                                  ...      1
Contraction scheme used                     ... SEGMENTED contraction
Prescreening option                         ... SCHWARTZ
   Thresh                                   ... 2.500e-11
   Tcut                                     ... 2.500e-12
   Tpresel                                  ... 2.500e-12 
Coulomb Range Separation                    ... NOT USED
Exchange Range Separation                   ... NOT USED
Multipole approximations                    ... NOT USED
Finite Nucleus Model                        ... NOT USED
CABS basis                                  ... NOT available
Auxiliary Coulomb fitting basis             ... AVAILABLE
   # of basis functions in Aux-J            ...    518
   # of shells in Aux-J                     ...    170
   Maximum angular momentum in Aux-J        ...      4
Auxiliary J/K fitting basis                 ... NOT available
Auxiliary Correlation fitting basis         ... NOT available
Auxiliary 'external' fitting basis          ... NOT available

Checking pre-screening integrals            ... done (  0.0 sec) Dimension = 75
   => SHARK Basis and OBASIS are compatible. Storing Pre-screening
Shell pair information
Shell pair cut-off parameter TPreSel        ...   2.5e-12
Total number of shell pairs                 ...      2850
Shell pairs after pre-screening             ...      2663
Total number of primitive shell pairs       ...     14745
Primitive shell pairs kept                  ...      9073
          la=0 lb=0:    785 shell pairs
          la=1 lb=0:    951 shell pairs
          la=1 lb=1:    305 shell pairs
          la=2 lb=0:    355 shell pairs
          la=2 lb=1:    222 shell pairs
          la=2 lb=2:     45 shell pairs

Checking whether 4 symmetric matrices of dimension 161 fit in memory
:Max Core in MB      =   4096.00
 MB in use           =      7.07
 MB left             =   4088.93
 MB needed           =      0.40
 Data fit in memory  = YES
Calculating RI/J V-Matrix + Cholesky decomp.... done (  0.0 sec)
Calculating Nuclear repulsion               ... done (  0.0 sec) ENN=    485.791903544724 Eh

Diagonalization of the overlap matrix:
Smallest eigenvalue                        ... 3.073e-03
Time for diagonalization                   ...    0.001 sec
Threshold for overlap eigenvalues          ... 1.000e-07
Number of eigenvalues below threshold      ... 0
Time for construction of square roots      ...    0.000 sec
Total time needed                          ...    0.002 sec

-------------------
DFT GRID GENERATION
-------------------

General Integration Accuracy     IntAcc      ... 4.388
Radial Grid Type                 RadialGrid  ... OptM3 with GC (2021)
Angular Grid (max. ang.)         AngularGrid ... 4 (Lebedev-302)
Angular grid pruning method      GridPruning ... 4 (adaptive)
Weight generation scheme         WeightScheme... mBecke (2022)
Basis function cutoff            BFCut       ... 1.0000e-11
Integration weight cutoff        WCut        ... 1.0000e-14
Partially contracted basis set               ... off
Rotationally invariant grid construction     ... off
Angular grids for H and He will be reduced by one unit

Total number of grid points                  ...    76915
Total number of batches                      ...     1210
Average number of points per batch           ...       63
Average number of grid points per atom       ...     4807
Grids setup in   0.3 sec
Initializing property integral containers    ... done (  0.0 sec)

SHARK setup successfully completed in   0.4 seconds

Maximum memory used throughout the entire STARTUP-calculation: 32.4 MB
-------------------------------------------------------------------------------
                                 ORCA GUESS
                   Start orbitals & Density for SCF / CASSCF
-------------------------------------------------------------------------------

------------
SCF SETTINGS
------------
Hamiltonian:
 Density Functional     Method          .... DFT(GTOs)
 Exchange Functional    Exchange        .... B97(D)
 Correlation Functional Correlation     .... B97(D)
 Gradients option       PostSCFGGA      .... off
 RI-approximation to the Coulomb term is turned on
   Number of AuxJ basis functions       .... 518


General Settings:
 Integral files         IntName         .... 3
 Hartree-Fock type      HFTyp           .... RHF
 Total Charge           Charge          ....    0
 Multiplicity           Mult            ....    1
 Number of Electrons    NEL             ....   70
 Basis Dimension        Dim             ....  161
 Nuclear Repulsion      ENuc            ....    485.7919035447 Eh

Convergence Acceleration:
 AO-DIIS                CNVDIIS         .... on
   Start iteration      DIISMaxIt       ....    12
   Startup error        DIISStart       ....  0.200000
   # of expansion vecs  DIISMaxEq       ....     5
   Bias factor          DIISBfac        ....   1.050
   Max. coefficient     DIISMaxC        ....  10.000
 MO-DIIS                CNVKDIIS        .... off
 Trust-Rad. Augm. Hess. CNVTRAH         .... auto
   Auto Start mean grad. ratio tolernc. ....  1.125000
   Auto Start start iteration           ....    50
   Auto Start num. interpolation iter.  ....    10
   Max. Number of Micro iterations      ....    24
   Max. Number of Macro iterations      .... Maxiter - #DIIS iter
   Number of Davidson start vectors     ....     2
   Converg. threshold    (grad. norm)   ....   1.000e-05
   Grad. Scal. Fac. for Micro threshold ....   0.100
   Minimum threshold for Micro iter.    ....   1.000e-02
   NR start threshold (gradient norm)   ....   1.000e-04
   Initial trust radius                 ....   0.400
   Minimum AH scaling param. (alpha)    ....   1.000
   Maximum AH scaling param. (alpha)    .... 1000.000
   Quad. conv. algorithm                .... NR
   White noise on init. David. guess    .... on
   Maximum white noise                  ....   0.010
   Pseudo random numbers                .... off
   Inactive MOs                         .... canonical
   Orbital update algorithm             .... Taylor
   Preconditioner                       .... Diag
   Full preconditioner red. dimension   ....   250
 SOSCF                 CNVSOSCF           .... on
   Start iteration     SOSCFMaxIt         ....   150
   Startup grad/error  SOSCFStart         ....  0.003300
   Hessian update      SOSCFHessUp        .... L-BFGS
   Autom. constraints  SOSCFAutoConstrain .... off
 Level Shifting         CNVShift        .... on
   Level shift para.    LevelShift      ....    0.2500
   Turn off err/grad.   ShiftErr        ....    0.0010
 Zerner damping         CNVZerner       .... off
 Static damping         CNVDamp         .... on
   Fraction old density DampFac         ....    0.7000
   Max. Damping (<1)    DampMax         ....    0.9800
   Min. Damping (>=0)   DampMin         ....    0.0000
   Turn off err/grad.   DampErr         ....    0.1000

SCF Procedure:
 Maximum # iterations   MaxIter         ....   125
 SCF integral mode      SCFMode         .... Direct
   Integral package                     .... SHARK and LIBINT hybrid scheme
 Reset frequency        DirectResetFreq ....    20
 Integral Threshold     Thresh          ....  2.500e-11 Eh
 Primitive CutOff       TCut            ....  2.500e-12 Eh

Convergence Tolerance:
 Convergence Check Mode ConvCheckMode   .... Total+1el-Energy
 Convergence forced     ConvForced      .... 0
 Energy Change          TolE            ....  1.000e-08 Eh
 1-El. energy change                    ....  1.000e-05 Eh
 Orbital Gradient       TolG            ....  1.000e-05
 Orbital Rotation angle TolX            ....  1.000e-05
 DIIS Error             TolErr          ....  5.000e-07

------------------------------
INITIAL GUESS: MODEL POTENTIAL
------------------------------
Loading Hartree-Fock densities                     ... done
Calculating cut-offs                               ... done
Initializing the effective Hamiltonian             ... done
Setting up the integral package (SHARK)            ... done
Starting the Coulomb interaction                   ... done (   0.0 sec)
Making the grid                                    ... done (   0.1 sec)
Mapping shells                                     ... done
Starting the XC term evaluation                    ... done (   0.1 sec)
  promolecular density results
     # of electrons  =     69.998680397
     EX              =    -61.071367017
     EC              =     -3.177552967
     EX+EC           =    -64.248919984
Transforming the Hamiltonian                       ... done (   0.0 sec)
Diagonalizing the Hamiltonian                      ... done (   0.0 sec)
Back transforming the eigenvectors                 ... done (   0.0 sec)
Now organizing SCF variables                       ... done
                      ------------------
                      INITIAL GUESS DONE (   0.2 sec)
                      ------------------
             **** ENERGY FILE WAS UPDATED (3.en.tmp) ****
Finished Guess after   0.2 sec
Maximum memory used throughout the entire GUESS-calculation: 11.8 MB

-------------------------------------------------------------------------------------------
                                      ORCA LEAN-SCF
                              memory conserving SCF solver
-------------------------------------------------------------------------------------------

----------------------------------------D-I-I-S--------------------------------------------
Iteration    Energy (Eh)           Delta-E    RMSDP     MaxDP     DIISErr   Damp  Time(sec)
-------------------------------------------------------------------------------------------
               ***  Starting incremental Fock matrix formation  ***
    1    -511.6077854064924395     0.00e+00  4.57e-03  1.05e-01  2.56e-01  0.700   0.4
    2    -511.7960243735445829    -1.88e-01  2.64e-03  5.36e-02  9.53e-02  0.700   0.4
                               ***Turning on AO-DIIS***
    3    -511.8479651148817311    -5.19e-02  9.39e-04  1.47e-02  3.33e-02  0.700   0.4
    4    -511.8849968045567493    -3.70e-02  1.25e-03  2.00e-02  1.56e-02  0.000   0.4
    5    -511.9725150400688563    -8.75e-02  4.52e-04  7.61e-03  1.28e-02  0.000   0.4
    6    -511.9733902898701672    -8.75e-04  1.61e-04  2.41e-03  3.78e-03  0.000   0.4
                              *** Initializing SOSCF ***
---------------------------------------S-O-S-C-F--------------------------------------
Iteration    Energy (Eh)           Delta-E    RMSDP     MaxDP     MaxGrad    Time(sec)
--------------------------------------------------------------------------------------
    7    -511.9734595652948883    -6.93e-05  6.01e-05  9.70e-04  9.88e-04     0.4
               *** Restarting incremental Fock matrix formation ***
    8    -511.9734699445007209    -1.04e-05  3.87e-05  6.99e-04  1.02e-04     0.4
    9    -511.9734702858492028    -3.41e-07  1.90e-05  2.73e-04  1.85e-04     0.3
   10    -511.9734705850842147    -2.99e-07  1.84e-05  3.17e-04  1.85e-04     0.3
   11    -511.9734707453674218    -1.60e-07  9.19e-06  1.75e-04  6.83e-05     0.3
   12    -511.9734709071303769    -1.62e-07  7.37e-06  1.18e-04  2.93e-05     0.3
   13    -511.9734709384026701    -3.13e-08  2.33e-06  3.66e-05  1.84e-05     0.3
   14    -511.9734709538820425    -1.55e-08  1.86e-06  2.69e-05  1.12e-05     0.3
   15    -511.9734709567294431    -2.85e-09  8.62e-07  2.41e-05  7.44e-06     0.3
                 **** Energy Check signals convergence ****

               *****************************************************
               *                     SUCCESS                       *
               *           SCF CONVERGED AFTER  15 CYCLES          *
               *****************************************************

             **** ENERGY FILE WAS UPDATED (3.en.tmp) ****

----------------
TOTAL SCF ENERGY
----------------

Total Energy       :       -511.97347095527380 Eh          -13931.50641 eV

Components:
Nuclear Repulsion  :        485.79190354472439 Eh           13219.06974 eV
Electronic Energy  :       -997.76537449999819 Eh          -27150.57615 eV
One Electron Energy:      -1664.69581976640870 Eh          -45298.67620 eV
Two Electron Energy:        666.93044526641052 Eh           18148.10005 eV

Virial components:
Potential Energy   :      -1021.40517258213845 Eh          -27793.84776 eV
Kinetic Energy     :        509.43170162686465 Eh           13862.34135 eV
Virial Ratio       :          2.00498942119285

DFT components:
N(Alpha)           :       34.999984037883 electrons
N(Beta)            :       34.999984037883 electrons
N(Total)           :       69.999968075766 electrons
E(X)               :      -62.259087877351 Eh       
E(C)               :       -3.164469009973 Eh       
E(XC)              :      -65.423556887324 Eh       

---------------
SCF CONVERGENCE
---------------

  Last Energy change         ...    2.8474e-09  Tolerance :   1.0000e-08
  Last MAX-Density change    ...    2.4095e-05  Tolerance :   1.0000e-07
  Last RMS-Density change    ...    8.6185e-07  Tolerance :   5.0000e-09
  Last DIIS Error            ...    9.8801e-04  Tolerance :   5.0000e-07
  Last Orbital Gradient      ...    7.4422e-06  Tolerance :   1.0000e-05
  Last Orbital Rotation      ...    1.3331e-05  Tolerance :   1.0000e-05


----------------
ORBITAL ENERGIES
----------------

  NO   OCC          E(Eh)            E(eV) 
   0   2.0000     -18.821754      -512.1660 
   1   2.0000     -18.818305      -512.0721 
   2   2.0000     -18.761254      -510.5197 
   3   2.0000     -18.758753      -510.4516 
   4   2.0000     -13.981940      -380.4679 
   5   2.0000     -10.041656      -273.2474 
   6   2.0000     -10.032033      -272.9855 
   7   2.0000      -9.960341      -271.0346 
   8   2.0000      -9.930923      -270.2342 
   9   2.0000      -1.030354       -28.0374 
  10   2.0000      -1.025128       -27.8951 
  11   2.0000      -0.940827       -25.6012 
  12   2.0000      -0.937097       -25.4997 
  13   2.0000      -0.817775       -22.2528 
  14   2.0000      -0.710949       -19.3459 
  15   2.0000      -0.634648       -17.2697 
  16   2.0000      -0.577190       -15.7061 
  17   2.0000      -0.535342       -14.5674 
  18   2.0000      -0.470533       -12.8039 
  19   2.0000      -0.449294       -12.2259 
  20   2.0000      -0.441470       -12.0130 
  21   2.0000      -0.423049       -11.5117 
  22   2.0000      -0.417019       -11.3477 
  23   2.0000      -0.403963       -10.9924 
  24   2.0000      -0.387683       -10.5494 
  25   2.0000      -0.371437       -10.1073 
  26   2.0000      -0.353178        -9.6105 
  27   2.0000      -0.348377        -9.4798 
  28   2.0000      -0.331278        -9.0145 
  29   2.0000      -0.322449        -8.7743 
  30   2.0000      -0.282732        -7.6935 
  31   2.0000      -0.277963        -7.5637 
  32   2.0000      -0.232192        -6.3183 
  33   2.0000      -0.228009        -6.2044 
  34   2.0000      -0.193234        -5.2582 
  35   0.0000      -0.028836        -0.7847 
  36   0.0000      -0.021128        -0.5749 
  37   0.0000       0.044883         1.2213 
  38   0.0000       0.054212         1.4752 
  39   0.0000       0.084504         2.2995 
  40   0.0000       0.116603         3.1729 
  41   0.0000       0.129038         3.5113 
  42   0.0000       0.143101         3.8940 
  43   0.0000       0.157849         4.2953 
  44   0.0000       0.167580         4.5601 
  45   0.0000       0.194267         5.2863 
*Only the first 10 virtual orbitals were printed.

                    ********************************
                    * MULLIKEN POPULATION ANALYSIS *
                    ********************************

-----------------------
MULLIKEN ATOMIC CHARGES
-----------------------
   0 C :    0.497383
   1 C :   -0.251398
   2 O :   -0.412065
   3 H :    0.320035
   4 O :   -0.449716
   5 C :   -0.052504
   6 H :    0.160882
   7 H :    0.147548
   8 C :    0.492313
   9 O :   -0.408059
  10 N :   -0.565783
  11 O :   -0.451198
  12 H :    0.246956
  13 H :    0.321402
  14 H :    0.139201
  15 H :    0.265004
Sum of atomic charges:   -0.0000000

--------------------------------
MULLIKEN REDUCED ORBITAL CHARGES
--------------------------------
  0 C s       :     2.990974  s :     2.990974
      pz      :     0.891871  p :     2.384549
      px      :     0.721532
      py      :     0.771145
      dz2     :     0.037725  d :     0.127094
      dxz     :     0.026107
      dyz     :     0.015976
      dx2y2   :     0.023760
      dxy     :     0.023525

  1 C s       :     3.245765  s :     3.245765
      pz      :     0.931119  p :     2.972272
      px      :     1.007804
      py      :     1.033349
      dz2     :     0.009738  d :     0.033361
      dxz     :     0.006592
      dyz     :     0.003991
      dx2y2   :     0.006729
      dxy     :     0.006311

  2 O s       :     3.859767  s :     3.859767
      pz      :     1.377835  p :     4.523905
      px      :     1.538348
      py      :     1.607723
      dz2     :     0.009115  d :     0.028393
      dxz     :     0.006005
      dyz     :     0.005652
      dx2y2   :     0.003299
      dxy     :     0.004323

  3 H s       :     0.641964  s :     0.641964
      pz      :     0.010394  p :     0.038000
      px      :     0.008689
      py      :     0.018917

  4 O s       :     3.824167  s :     3.824167
      pz      :     1.401667  p :     4.602663
      px      :     1.510038
      py      :     1.690957
      dz2     :     0.008567  d :     0.022886
      dxz     :     0.002690
      dyz     :     0.001082
      dx2y2   :     0.005222
      dxy     :     0.005325

  5 C s       :     3.204984  s :     3.204984
      pz      :     1.035518  p :     2.789118
      px      :     0.847426
      py      :     0.906174
      dz2     :     0.014609  d :     0.058402
      dxz     :     0.009389
      dyz     :     0.006277
      dx2y2   :     0.012693
      dxy     :     0.015434

  6 H s       :     0.827403  s :     0.827403
      pz      :     0.002640  p :     0.011715
      px      :     0.002929
      py      :     0.006147

  7 H s       :     0.840910  s :     0.840910
      pz      :     0.003381  p :     0.011542
      px      :     0.005414
      py      :     0.002748

  8 C s       :     2.986154  s :     2.986154
      pz      :     0.772262  p :     2.396473
      px      :     0.744813
      py      :     0.879398
      dz2     :     0.024558  d :     0.125060
      dxz     :     0.026400
      dyz     :     0.025897
      dx2y2   :     0.028082
      dxy     :     0.020123

  9 O s       :     3.863697  s :     3.863697
      pz      :     1.550404  p :     4.516225
      px      :     1.524103
      py      :     1.441719
      dz2     :     0.006102  d :     0.028137
      dxz     :     0.006907
      dyz     :     0.006018
      dx2y2   :     0.004965
      dxy     :     0.004145

 10 N s       :     3.581930  s :     3.581930
      pz      :     1.350775  p :     3.956188
      px      :     1.129860
      py      :     1.475553
      dz2     :     0.010497  d :     0.027665
      dxz     :     0.002564
      dyz     :     0.001823
      dx2y2   :     0.003284
      dxy     :     0.009496

 11 O s       :     3.824537  s :     3.824537
      pz      :     1.680181  p :     4.603966
      px      :     1.525614
      py      :     1.398171
      dz2     :     0.003956  d :     0.022695
      dxz     :     0.005460
      dyz     :     0.004929
      dx2y2   :     0.005798
      dxy     :     0.002551

 12 H s       :     0.729111  s :     0.729111
      pz      :     0.005894  p :     0.023933
      px      :     0.008678
      py      :     0.009361

 13 H s       :     0.640809  s :     0.640809
      pz      :     0.021343  p :     0.037788
      px      :     0.007766
      py      :     0.008680

 14 H s       :     0.849834  s :     0.849834
      pz      :     0.006640  p :     0.010966
      px      :     0.001890
      py      :     0.002435

 15 H s       :     0.710186  s :     0.710186
      pz      :     0.012063  p :     0.024810
      px      :     0.004823
      py      :     0.007924



                     *******************************
                     * LOEWDIN POPULATION ANALYSIS *
                     *******************************

----------------------
LOEWDIN ATOMIC CHARGES
----------------------
   0 C :    0.116780
   1 C :   -0.136072
   2 O :   -0.212490
   3 H :    0.183247
   4 O :   -0.132318
   5 C :   -0.039255
   6 H :    0.100780
   7 H :    0.092755
   8 C :    0.094042
   9 O :   -0.213921
  10 N :   -0.248706
  11 O :   -0.137387
  12 H :    0.129267
  13 H :    0.184358
  14 H :    0.086959
  15 H :    0.131962

-------------------------------
LOEWDIN REDUCED ORBITAL CHARGES
-------------------------------
  0 C s       :     2.847069  s :     2.847069
      pz      :     1.025293  p :     2.735544
      px      :     0.886554
      py      :     0.823698
      dz2     :     0.092086  d :     0.300607
      dxz     :     0.061291
      dyz     :     0.034324
      dx2y2   :     0.053523
      dxy     :     0.059383

  1 C s       :     2.909329  s :     2.909329
      pz      :     1.027001  p :     3.150982
      px      :     1.057545
      py      :     1.066436
      dz2     :     0.024837  d :     0.075762
      dxz     :     0.014505
      dyz     :     0.008331
      dx2y2   :     0.013411
      dxy     :     0.014677

  2 O s       :     3.553370  s :     3.553370
      pz      :     1.434196  p :     4.600553
      px      :     1.548445
      py      :     1.617913
      dz2     :     0.014359  d :     0.058567
      dxz     :     0.014883
      dyz     :     0.014596
      dx2y2   :     0.006461
      dxy     :     0.008268

  3 H s       :     0.700992  s :     0.700992
      pz      :     0.031393  p :     0.115761
      px      :     0.024428
      py      :     0.059940

  4 O s       :     3.471427  s :     3.471427
      pz      :     1.408713  p :     4.610115
      px      :     1.527987
      py      :     1.673415
      dz2     :     0.018438  d :     0.050777
      dxz     :     0.007942
      dyz     :     0.002293
      dx2y2   :     0.009927
      dxy     :     0.012177

  5 C s       :     2.881462  s :     2.881462
      pz      :     1.055787  p :     3.025419
      px      :     0.964284
      py      :     1.005347
      dz2     :     0.032293  d :     0.132374
      dxz     :     0.020309
      dyz     :     0.014334
      dx2y2   :     0.029118
      dxy     :     0.036321

  6 H s       :     0.857876  s :     0.857876
      pz      :     0.008151  p :     0.041344
      px      :     0.009098
      py      :     0.024095

  7 H s       :     0.865380  s :     0.865380
      pz      :     0.012374  p :     0.041866
      px      :     0.020743
      py      :     0.008748

  8 C s       :     2.859471  s :     2.859471
      pz      :     0.912614  p :     2.746807
      px      :     0.866596
      py      :     0.967597
      dz2     :     0.053597  d :     0.299680
      dxz     :     0.069163
      dyz     :     0.062747
      dx2y2   :     0.068077
      dxy     :     0.046096

  9 O s       :     3.552907  s :     3.552907
      pz      :     1.602807  p :     4.602635
      px      :     1.554687
      py      :     1.445141
      dz2     :     0.012686  d :     0.058380
      dxz     :     0.017619
      dyz     :     0.011473
      dx2y2   :     0.007850
      dxy     :     0.008753

 10 N s       :     3.187127  s :     3.187127
      pz      :     1.356947  p :     4.004786
      px      :     1.181391
      py      :     1.466448
      dz2     :     0.018496  d :     0.056793
      dxz     :     0.006937
      dyz     :     0.003889
      dx2y2   :     0.007773
      dxy     :     0.019696

 11 O s       :     3.468361  s :     3.468361
      pz      :     1.673104  p :     4.617848
      px      :     1.541482
      py      :     1.403262
      dz2     :     0.006765  d :     0.051178
      dxz     :     0.011796
      dyz     :     0.009462
      dx2y2   :     0.013152
      dxy     :     0.010004

 12 H s       :     0.791298  s :     0.791298
      pz      :     0.016124  p :     0.079435
      px      :     0.029540
      py      :     0.033771

 13 H s       :     0.700419  s :     0.700419
      pz      :     0.068956  p :     0.115222
      px      :     0.021862
      py      :     0.024405

 14 H s       :     0.873797  s :     0.873797
      pz      :     0.026384  p :     0.039244
      px      :     0.005922
      py      :     0.006937

 15 H s       :     0.785050  s :     0.785050
      pz      :     0.046126  p :     0.082988
      px      :     0.013104
      py      :     0.023759



                      *****************************
                      * MAYER POPULATION ANALYSIS *
                      *****************************

  NA   - Mulliken gross atomic population
  ZA   - Total nuclear charge
  QA   - Mulliken gross atomic charge
  VA   - Mayer's total valence
  BVA  - Mayer's bonded valence
  FA   - Mayer's free valence

  ATOM       NA         ZA         QA         VA         BVA        FA
  0 C      5.5026     6.0000     0.4974     3.9914     3.9914    -0.0000
  1 C      6.2514     6.0000    -0.2514     3.8106     3.8106    -0.0000
  2 O      8.4121     8.0000    -0.4121     2.1191     2.1191    -0.0000
  3 H      0.6800     1.0000     0.3200     0.9160     0.9160     0.0000
  4 O      8.4497     8.0000    -0.4497     2.0594     2.0594    -0.0000
  5 C      6.0525     6.0000    -0.0525     3.8970     3.8970     0.0000
  6 H      0.8391     1.0000     0.1609     0.9508     0.9508    -0.0000
  7 H      0.8525     1.0000     0.1475     0.9542     0.9542    -0.0000
  8 C      5.5077     6.0000     0.4923     3.9437     3.9437     0.0000
  9 O      8.4081     8.0000    -0.4081     2.1041     2.1041    -0.0000
 10 N      7.5658     7.0000    -0.5658     2.8964     2.8964     0.0000
 11 O      8.4512     8.0000    -0.4512     2.0327     2.0327     0.0000
 12 H      0.7530     1.0000     0.2470     0.9273     0.9273     0.0000
 13 H      0.6786     1.0000     0.3214     0.9144     0.9144    -0.0000
 14 H      0.8608     1.0000     0.1392     0.9430     0.9430    -0.0000
 15 H      0.7350     1.0000     0.2650     0.9364     0.9364     0.0000

  Mayer bond orders larger than 0.100000
B(  0-C ,  1-C ) :   0.9508 B(  0-C ,  4-O ) :   1.0994 B(  0-C ,  9-O ) :   1.8914 
B(  1-C ,  5-C ) :   0.9698 B(  1-C ,  6-H ) :   0.9290 B(  1-C ,  7-H ) :   0.9266 
B(  2-O ,  8-C ) :   1.9285 B(  3-H , 11-O ) :   0.8506 B(  4-O , 13-H ) :   0.8515 
B(  5-C ,  8-C ) :   0.8824 B(  5-C , 10-N ) :   1.0730 B(  5-C , 14-H ) :   0.9211 
B(  8-C , 11-O ) :   1.0807 B( 10-N , 12-H ) :   0.9034 B( 10-N , 15-H ) :   0.8740 


-------
TIMINGS
-------

Total SCF time: 0 days 0 hours 0 min 5 sec 

Total time                  ....       5.889 sec
Sum of individual times     ....       5.522 sec  ( 93.8%)

SCF preparation             ....       0.029 sec  (  0.5%)
Fock matrix formation       ....       5.447 sec  ( 92.5%)
  Startup                   ....       0.001 sec  (  0.0% of F)
  Split-RI-J                ....       1.791 sec  ( 32.9% of F)
  XC integration            ....       3.958 sec  ( 72.7% of F)
    XC Preparation          ....       0.000 sec  (  0.0% of XC)
    Basis function eval.    ....       1.398 sec  ( 35.3% of XC)
    Density eval.           ....       0.840 sec  ( 21.2% of XC)
    XC-Functional eval.     ....       0.751 sec  ( 19.0% of XC)
    XC-Potential eval.      ....       0.862 sec  ( 21.8% of XC)
Diagonalization             ....       0.000 sec  (  0.0%)
Density matrix formation    ....       0.004 sec  (  0.1%)
Total Energy calculation    ....       0.001 sec  (  0.0%)
Population analysis         ....       0.002 sec  (  0.0%)
Orbital Transformation      ....       0.004 sec  (  0.1%)
Orbital Orthonormalization  ....       0.000 sec  (  0.0%)
DIIS solution               ....       0.021 sec  (  0.4%)
SOSCF solution              ....       0.014 sec  (  0.2%)
Finished LeanSCF after   5.9 sec

Maximum memory used throughout the entire LEANSCF-calculation: 17.6 MB



-------------------------------------------------------------------------------
                          DFT DISPERSION CORRECTION                            
-------------------------------------------------------------------------------
Active option DFTDOPT                   ...         2   
Final C6-coefficient scaling factor     ...     1.250
Final VDW-radii scaling factor          ...     1.100
Damping factor alpha                    ...    20.000
-------------------------   ----------------
Dispersion correction           -0.020701599
-------------------------   ----------------


-------------------------   --------------------
FINAL SINGLE POINT ENERGY      -511.994172554752
-------------------------   --------------------

------------------------------------------------------------------------------
                         ORCA SCF GRADIENT CALCULATION
------------------------------------------------------------------------------

Nuc. rep. gradient        (SHARK) ... done (  0.0 sec)
HCore & Overlap gradient  (SHARK) ... done (  0.1 sec)
Split-RIJ-J gradient      (SHARK) ... done (  0.5 sec)
XC gradient                       ... done (  2.1 sec)
Dispersion correction             ... done (  0.0 sec)

-------------------
DISPERSION GRADIENT
-------------------

   1   C   :   -0.000015634   -0.000026296   -0.000892921
   2   C   :    0.000561587    0.000308952    0.000078095
   3   O   :   -0.000313476    0.001049015   -0.000361885
   4   H   :    0.000294178    0.000152403    0.000211044
   5   O   :   -0.000504185   -0.000638008    0.000353207
   6   C   :   -0.000183925   -0.000243178    0.000201131
   7   H   :   -0.000828872    0.000254017   -0.000247390
   8   H   :    0.000108788   -0.001164132    0.000538976
   9   C   :    0.000192658   -0.000222526   -0.000478171
  10   O   :   -0.000441050   -0.000037433    0.000571946
  11   N   :   -0.000187971    0.000669098   -0.000474658
  12   O   :    0.000178977    0.000916832   -0.000092429
  13   H   :    0.000509112   -0.000371972    0.000174572
  14   H   :    0.000254911   -0.000277856    0.000173503
  15   H   :    0.000264877    0.000030609   -0.000057392
  16   H   :    0.000110024   -0.000399527    0.000302373

Difference to translation invariance:
           :   -0.0000000000    0.0000000000    0.0000000000

Difference to rotation invariance:
           :    0.0000000000    0.0000000000   -0.0000000000

Norm of the Dispersion gradient    ...    0.0030748233
RMS gradient                       ...    0.0004438125
MAX gradient                       ...    0.0011641316

------------------
CARTESIAN GRADIENT
------------------

   1   C   :    0.007780102    0.002120784    0.011383117
   2   C   :    0.002336649   -0.001761906    0.002123752
   3   O   :   -0.016299098   -0.013381466   -0.024878865
   4   H   :   -0.003553830   -0.001981015   -0.005019974
   5   O   :    0.025167895   -0.014007550    0.006417982
   6   C   :   -0.003522311   -0.000219100    0.001578789
   7   H   :   -0.001023781    0.005056722    0.000751073
   8   H   :    0.002688031   -0.000654962    0.004380195
   9   C   :   -0.001757532    0.004300536    0.008121404
  10   O   :   -0.023376037    0.015140903   -0.024279533
  11   N   :   -0.005992140    0.007983936    0.003404544
  12   O   :    0.021522318   -0.001148509    0.020548157
  13   H   :   -0.001382760   -0.003043339   -0.000833705
  14   H   :   -0.005333934    0.002737457   -0.004075654
  15   H   :    0.002625920   -0.000009346    0.003382401
  16   H   :    0.000120509   -0.001133147   -0.003003680

Difference to translation invariance:
           :    0.0000000000   -0.0000000000   -0.0000000000

Difference to rotation invariance:
           :    0.0000234690    0.0000702469    0.0000605567

Norm of the Cartesian gradient     ...    0.0692582784
RMS gradient                       ...    0.0099965714
MAX gradient                       ...    0.0251678945

-------
TIMINGS
-------

Total SCF gradient time     ....        2.632 sec

Densities                   ....       0.000 sec  (  0.0%)
One electron gradient       ....       0.081 sec  (  3.1%)
RI-J Coulomb gradient       ....       0.479 sec  ( 18.2%)
XC gradient                 ....       2.071 sec  ( 78.7%)

Maximum memory used throughout the entire SCFGRAD-calculation: 22.7 MB
------------------------------------------------------------------------------
                         ORCA GEOMETRY RELAXATION STEP
------------------------------------------------------------------------------

Reading the OPT-File                    .... done
Getting information on internals        .... done
Copying old internal coords+grads       .... done
Making the new internal coordinates     .... (2022 redundants) done
Validating the new internal coordinates .... (2022 redundants) done
Calculating the B-matrix                .... done
Calculating the G,G- and P matrices     .... done
Transforming gradient to internals      .... done
Projecting the internal gradient        .... done
Number of atoms                         ....  16
Number of internal coordinates          ....  64
Current Energy                          ....  -511.994172555 Eh
Current gradient norm                   ....     0.069258278 Eh/bohr
Maximum allowed component of the step   ....  0.300
Current trust radius                    ....  0.300
Evaluating the initial hessian          ....  (Almloef) done
Projecting the Hessian                  .... done
Forming the augmented Hessian           .... done
Diagonalizing the augmented Hessian     .... done
Last element of RFO vector              ....  0.982922322
Lowest eigenvalues of augmented Hessian:
 -0.007224453  0.010134542  0.010413255  0.011773760  0.016889552
Length of the computed step             ....  0.187218199
The final length of the internal step   ....  0.187218199
Converting the step to Cartesian space:
 Initial RMS(Int)=    0.0234022749
Transforming coordinates:
 Iter   0:  RMS(Cart)=    0.0828723754 RMS(Int)=    0.0240335388
 Iter   5:  RMS(Cart)=    0.0000000142 RMS(Int)=    0.0000000105
done
Storing new coordinates                 .... done

                                .--------------------.
          ----------------------|Geometry convergence|-------------------------
          Item                value                   Tolerance       Converged
          ---------------------------------------------------------------------
          RMS gradient        0.0083475325            0.0001000000      NO
          MAX gradient        0.0369285273            0.0003000000      NO
          RMS step            0.0234022749            0.0020000000      NO
          MAX step            0.0702120509            0.0040000000      NO
          -------------------------------------------------------------------------
          ........................................................
          Max(Bonds)      0.0292      Max(Angles)    1.83
          Max(Dihed)        4.02      Max(Improp)    0.00
          ---------------------------------------------------------------------

The optimization has not yet converged - more geometry cycles are needed


    ---------------------------------------------------------------------------
                         Redundant Internal Coordinates
                            (Angstroem and degrees)

        Definition                    Value    dE/dq     Step     New-Value
    ----------------------------------------------------------------------------
     1. B(C   1,C   0)                1.5099 -0.009480  0.0136    1.5235   
     2. B(O   4,C   0)                1.3368 -0.021786  0.0168    1.3536   
     3. B(C   5,C   1)                1.5436 -0.010117  0.0167    1.5603   
     4. B(H   6,C   1)                1.0897 -0.005137  0.0074    1.0971   
     5. B(H   7,C   1)                1.0882 -0.004579  0.0066    1.0948   
     6. B(C   8,C   5)                1.5309 -0.011388  0.0159    1.5467   
     7. B(C   8,O   2)                1.2012 -0.032570  0.0153    1.2165   
     8. B(O   9,C   0)                1.2012 -0.036929  0.0173    1.2186   
     9. B(N  10,C   5)                1.4437 -0.006714  0.0084    1.4520   
    10. B(O  11,C   8)                1.3355 -0.022698  0.0174    1.3529   
    11. B(O  11,H   3)                0.9708 -0.002901  0.0030    0.9738   
    12. B(H  12,N  10)                1.0146 -0.003175  0.0039    1.0185   
    13. B(H  13,O   4)                0.9710 -0.003142  0.0033    0.9743   
    14. B(H  14,C   5)                1.0984 -0.003140  0.0047    1.1031   
    15. B(H  15,N  10)                1.0164 -0.004117  0.0038    1.0203   
    16. B(H  15,O   9)                2.2494 -0.002475  0.0292    2.2786   
    17. A(C   1,C   0,O   9)          125.37  0.004844   -0.35    125.02   
    18. A(C   1,C   0,O   4)          112.00  0.000635   -0.20    111.80   
    19. A(O   4,C   0,O   9)          122.60 -0.005467    0.54    123.14   
    20. A(C   5,C   1,H   7)          110.18  0.002205   -0.32    109.86   
    21. A(C   0,C   1,H   6)          109.32  0.004361   -1.02    108.30   
    22. A(H   6,C   1,H   7)          111.02  0.000042   -0.56    110.46   
    23. A(C   5,C   1,H   6)          107.79  0.001361   -0.49    107.30   
    24. A(C   0,C   1,C   5)          108.94 -0.006218    1.83    110.77   
    25. A(C   0,C   1,H   7)          109.54 -0.001810    0.58    110.13   
    26. A(C   0,O   4,H  13)          110.68  0.011970   -1.80    108.88   
    27. A(C   8,C   5,N  10)          113.66 -0.000147    0.47    114.12   
    28. A(C   1,C   5,N  10)          110.39  0.004264   -0.02    110.37   
    29. A(N  10,C   5,H  14)          108.63 -0.002261   -0.08    108.55   
    30. A(C   8,C   5,H  14)          107.16  0.002031   -0.70    106.46   
    31. A(C   1,C   5,H  14)          108.45  0.002147   -1.15    107.30   
    32. A(C   1,C   5,C   8)          108.40 -0.005943    1.37    109.77   
    33. A(C   5,C   8,O  11)          112.07  0.004619   -0.61    111.46   
    34. A(O   2,C   8,O  11)          123.25 -0.004100    0.51    123.76   
    35. A(O   2,C   8,C   5)          124.67 -0.000517    0.10    124.77   
    36. A(H  12,N  10,H  15)          107.23 -0.000716   -0.47    106.76   
    37. A(C   5,N  10,H  15)          110.06  0.003562   -0.52    109.54   
    38. A(C   5,N  10,H  12)          110.25  0.001093   -0.45    109.81   
    39. A(H   3,O  11,C   8)          110.78  0.010589   -1.59    109.19   
    40. D(H   6,C   1,C   0,O   9)     47.18 -0.000610    0.34     47.53   
    41. D(C   5,C   1,C   0,O   9)    -70.38 -0.001160    0.47    -69.91   
    42. D(H   6,C   1,C   0,O   4)   -134.60 -0.000289   -0.06   -134.66   
    43. D(C   5,C   1,C   0,O   4)    107.84 -0.000839    0.06    107.90   
    44. D(H   7,C   1,C   0,O   4)    -12.74  0.001390   -1.03    -13.77   
    45. D(H  13,O   4,C   0,O   9)      0.27 -0.000091    0.28      0.55   
    46. D(H  13,O   4,C   0,C   1)   -178.01 -0.000611    0.69   -177.32   
    47. D(N  10,C   5,C   1,H   7)   -169.43 -0.001793   -0.84   -170.27   
    48. D(N  10,C   5,C   1,H   6)    -48.14  0.000429   -2.02    -50.16   
    49. D(N  10,C   5,C   1,C   0)     70.38  0.002968   -2.50     67.88   
    50. D(C   8,C   5,C   1,H   7)     65.49 -0.000367   -2.36     63.13   
    51. D(C   8,C   5,C   1,H   6)   -173.23  0.001855   -3.54   -176.76   
    52. D(C   8,C   5,C   1,C   0)    -54.70  0.004394   -4.02    -58.72   
    53. D(O   2,C   8,C   5,N  10)     -8.47 -0.000423   -1.75    -10.22   
    54. D(O   2,C   8,C   5,C   1)    114.66  0.000570   -0.44    114.22   
    55. D(O  11,C   8,C   5,N  10)    170.91 -0.000249   -1.67    169.24   
    56. D(O  11,C   8,C   5,C   1)    -65.96  0.000744   -0.36    -66.32   
    57. D(O   2,C   8,C   5,H  14)   -128.48  0.001104   -1.46   -129.94   
    58. D(H  15,N  10,C   5,C   1)    -47.04  0.003916   -2.42    -49.46   
    59. D(H  12,N  10,C   5,H  14)     76.08 -0.001804    0.22     76.30   
    60. D(H  12,N  10,C   5,C   8)    -43.10 -0.002712    0.86    -42.24   
    61. D(H  15,N  10,C   5,C   8)     74.99 -0.000741   -0.31     74.68   
    62. D(H  12,N  10,C   5,C   1)   -165.13  0.001945   -1.25   -166.38   
    63. D(H   3,O  11,C   8,C   5)    179.19  0.000022   -0.20    178.99   
    64. D(H   3,O  11,C   8,O   2)     -1.42  0.000218   -0.12     -1.55   
    ----------------------------------------------------------------------------

Geometry step timings:
Preparation and reading OPT file:      0.000 s ( 1.611 %)
Internal coordinates            :      0.000 s ( 1.381 %)
B/P matrices and projection     :      0.000 s (38.320 %)
Hessian update/contruction      :      0.000 s (10.127 %)
Making the step                 :      0.000 s (26.928 %)
Converting the step to Cartesian:      0.000 s ( 4.028 %)
Storing new data                :      0.000 s ( 1.611 %)
Checking convergence            :      0.000 s ( 1.381 %)
Final printing                  :      0.000 s (14.384 %)
Total time                      :      0.001 s

Time for energy+gradient        :      9.201 s
Time for complete geometry iter :      9.214 s

         *************************************************************
         *                GEOMETRY OPTIMIZATION CYCLE   2            *
         *************************************************************
---------------------------------
CARTESIAN COORDINATES (ANGSTROEM)
---------------------------------
  C     -4.185610    1.101539    1.313782
  C     -3.901059    1.161879   -0.181510
  O     -2.500293    4.125687    0.947495
  H     -4.315324    4.973867   -0.282635
  O     -5.343353    1.726925    1.631195
  C     -2.725682    2.143274   -0.479981
  H     -3.586067    0.164679   -0.513060
  H     -4.797628    1.479748   -0.723392
  C     -3.078326    3.556207    0.041201
  O     -3.452545    0.594279    2.144574
  N     -1.480015    1.611632    0.043225
  O     -4.111253    4.094265   -0.647217
  H     -0.769132    2.341012    0.049648
  H     -5.461457    1.699998    2.597948
  H     -2.638500    2.227186   -1.576382
  H     -1.613565    1.322146    1.012568

----------------------------
CARTESIAN COORDINATES (A.U.)
----------------------------
  NO LB      ZA    FRAG     MASS         X           Y           Z
   0 C     6.0000    0    12.011   -7.909657    2.081607    2.482688
   1 C     6.0000    0    12.011   -7.371932    2.195634   -0.343004
   2 O     8.0000    0    15.999   -4.724869    7.796418    1.790506
   3 H     1.0000    0     1.008   -8.154781    9.399246   -0.534103
   4 O     8.0000    0    15.999  -10.097473    3.263415    3.082513
   5 C     6.0000    0    12.011   -5.150793    4.050201   -0.907034
   6 H     1.0000    0     1.008   -6.776685    0.311198   -0.969543
   7 H     1.0000    0     1.008   -9.066204    2.796318   -1.367012
   8 C     6.0000    0    12.011   -5.817193    6.720258    0.077859
   9 O     8.0000    0    15.999   -6.524364    1.123025    4.052657
  10 N     7.0000    0    14.007   -2.796823    3.045543    0.081683
  11 O     8.0000    0    15.999   -7.769142    7.737040   -1.223063
  12 H     1.0000    0     1.008   -1.453449    4.423872    0.093821
  13 H     1.0000    0     1.008  -10.320657    3.212530    4.909411
  14 H     1.0000    0     1.008   -4.986042    4.208771   -2.978929
  15 H     1.0000    0     1.008   -3.049197    2.498495    1.913476

--------------------------------
INTERNAL COORDINATES (ANGSTROEM)
--------------------------------
 C      0   0   0     0.000000000000     0.00000000     0.00000000
 C      1   0   0     1.523321818832     0.00000000     0.00000000
 O      2   1   0     3.467124438789    77.85944821     0.00000000
 H      3   2   1     2.350950517605    79.98570829   248.86547826
 O      1   2   3     1.353597590374   111.81735295    86.99441954
 C      2   1   3     1.560041804871   110.69900391    20.92937147
 H      2   1   3     1.097065861829   108.31749786   138.33495422
 H      2   1   3     1.094766340689   110.14450361   259.23590678
 C      3   2   1     1.216469286592    33.40911344   213.58316072
 O      1   2   3     1.218569726322   124.98396842   269.18653193
 N      6   2   1     1.451921115043   110.31040609    67.85793156
 O      4   3   2     0.973788496108    73.03564908   335.94854040
 H     11   6   2     1.018524073845   109.80755879   193.62100703
 H      5   1   2     0.974312386758   108.87994442   182.68552467
 H      6   2   1     1.103057175872   107.31185283   185.94325350
 H     11   6   2     1.020423219516   109.50615296   310.55174195

---------------------------
INTERNAL COORDINATES (A.U.)
---------------------------
 C      0   0   0     0.000000000000     0.00000000     0.00000000
 C      1   0   0     2.878661051419     0.00000000     0.00000000
 O      2   1   0     6.551915661538    77.85944821     0.00000000
 H      3   2   1     4.442652632674    79.98570829   248.86547826
 O      1   2   3     2.557928741343   111.81735295    86.99441954
 C      2   1   3     2.948051768674   110.69900391    20.92937147
 H      2   1   3     2.073154029732   108.31749786   138.33495422
 H      2   1   3     2.068808564538   110.14450361   259.23590678
 C      3   2   1     2.298793801985    33.40911344   213.58316072
 O      1   2   3     2.302763057835   124.98396842   269.18653193
 N      6   2   1     2.743733275490   110.31040609    67.85793156
 O      4   3   2     1.840193570008    73.03564908   335.94854040
 H     11   6   2     1.924731560373   109.80755879   193.62100703
 H      5   1   2     1.841183579861   108.87994442   182.68552467
 H      6   2   1     2.084475972454   107.31185283   185.94325350
 H     11   6   2     1.928320425580   109.50615296   310.55174195

------------------------------------------------------------------------------
                   ___                                                        
                  /   \      - P O W E R E D   B Y -                         
                 /     \                                                     
                 |  |  |   _    _      __       _____    __    __             
                 |  |  |  | |  | |    /  \     |  _  \  |  |  /  |          
                  \  \/   | |  | |   /    \    | | | |  |  | /  /          
                 / \  \   | |__| |  /  /\  \   | |_| |  |  |/  /          
                |  |  |   |  __  | /  /__\  \  |    /   |      \           
                |  |  |   | |  | | |   __   |  |    \   |  |\   \          
                \     /   | |  | | |  |  |  |  | |\  \  |  | \   \       
                 \___/    |_|  |_| |__|  |__|  |_| \__\ |__|  \__/        
                                                                              
                      - O R C A' S   B I G   F R I E N D -                    
                                      &                                       
                       - I N T E G R A L  F E E D E R -                       
                                                                              
 v1 FN, 2020, v2 2021, v3 2022-2024                                           
------------------------------------------------------------------------------


----------------------
SHARK INTEGRAL PACKAGE
----------------------

Number of atoms                             ...     16
Number of basis functions                   ...    161
Number of shells                            ...     75
Maximum angular momentum                    ...      2
Integral batch strategy                     ... SHARK/LIBINT Hybrid
RI-J (if used) integral strategy            ... SPLIT-RIJ (Revised 2003 algorithm where possible)
Printlevel                                  ...      1
Contraction scheme used                     ... SEGMENTED contraction
Prescreening option                         ... SCHWARTZ
   Thresh                                   ... 2.500e-11
   Tcut                                     ... 2.500e-12
   Tpresel                                  ... 2.500e-12 
Coulomb Range Separation                    ... NOT USED
Exchange Range Separation                   ... NOT USED
Multipole approximations                    ... NOT USED
Finite Nucleus Model                        ... NOT USED
CABS basis                                  ... NOT available
Auxiliary Coulomb fitting basis             ... AVAILABLE
   # of basis functions in Aux-J            ...    518
   # of shells in Aux-J                     ...    170
   Maximum angular momentum in Aux-J        ...      4
Auxiliary J/K fitting basis                 ... NOT available
Auxiliary Correlation fitting basis         ... NOT available
Auxiliary 'external' fitting basis          ... NOT available

Checking pre-screening integrals            ... done (  0.0 sec) Dimension = 75
   => SHARK Basis and OBASIS are compatible. Storing Pre-screening
Shell pair information
Shell pair cut-off parameter TPreSel        ...   2.5e-12
Total number of shell pairs                 ...      2850
Shell pairs after pre-screening             ...      2646
Total number of primitive shell pairs       ...     14745
Primitive shell pairs kept                  ...      8995
          la=0 lb=0:    783 shell pairs
          la=1 lb=0:    946 shell pairs
          la=1 lb=1:    305 shell pairs
          la=2 lb=0:    348 shell pairs
          la=2 lb=1:    219 shell pairs
          la=2 lb=2:     45 shell pairs

Checking whether 4 symmetric matrices of dimension 161 fit in memory
:Max Core in MB      =   4096.00
 MB in use           =      7.24
 MB left             =   4088.76
 MB needed           =      0.40
 Data fit in memory  = YES
[...]
      pz      :     0.930042  p :     2.961045
      px      :     1.000220
      py      :     1.030783
      dz2     :     0.009287  d :     0.032613
      dxz     :     0.006608
      dyz     :     0.004231
      dx2y2   :     0.006294
      dxy     :     0.006193

  2 O s       :     3.872655  s :     3.872655
      pz      :     1.373858  p :     4.517594
      px      :     1.523161
      py      :     1.620575
      dz2     :     0.009082  d :     0.027622
      dxz     :     0.006186
      dyz     :     0.005947
      dx2y2   :     0.002771
      dxy     :     0.003635

  3 H s       :     0.640320  s :     0.640320
      pz      :     0.010525  p :     0.037490
      px      :     0.008571
      py      :     0.018394

  4 O s       :     3.841948  s :     3.841948
      pz      :     1.379021  p :     4.591544
      px      :     1.527497
      py      :     1.685026
      dz2     :     0.008608  d :     0.023325
      dxz     :     0.002557
      dyz     :     0.001444
      dx2y2   :     0.005149
      dxy     :     0.005566

  5 C s       :     3.215805  s :     3.215805
      pz      :     1.033543  p :     2.783421
      px      :     0.847478
      py      :     0.902401
      dz2     :     0.014480  d :     0.056681
      dxz     :     0.008595
      dyz     :     0.005526
      dx2y2   :     0.012779
      dxy     :     0.015301

  6 H s       :     0.825815  s :     0.825815
      pz      :     0.002635  p :     0.011498
      px      :     0.002850
      py      :     0.006012

  7 H s       :     0.841248  s :     0.841248
      pz      :     0.003304  p :     0.011333
      px      :     0.005294
      py      :     0.002735

  8 C s       :     3.007790  s :     3.007790
      pz      :     0.753276  p :     2.374296
      px      :     0.747938
      py      :     0.873083
      dz2     :     0.024962  d :     0.117783
      dxz     :     0.025758
      dyz     :     0.027416
      dx2y2   :     0.023080
      dxy     :     0.016566

  9 O s       :     3.878196  s :     3.878196
      pz      :     1.561947  p :     4.511024
      px      :     1.517568
      py      :     1.431508
      dz2     :     0.005638  d :     0.027327
      dxz     :     0.006383
      dyz     :     0.005719
      dx2y2   :     0.005366
      dxy     :     0.004221

 10 N s       :     3.603217  s :     3.603217
      pz      :     1.296862  p :     3.924059
      px      :     1.111517
      py      :     1.515680
      dz2     :     0.011609  d :     0.028433
      dxz     :     0.002263
      dyz     :     0.001173
      dx2y2   :     0.003273
      dxy     :     0.010116

 11 O s       :     3.842306  s :     3.842306
      pz      :     1.649769  p :     4.595942
      px      :     1.558425
      py      :     1.387749
      dz2     :     0.004246  d :     0.023039
      dxz     :     0.005706
      dyz     :     0.005846
      dx2y2   :     0.005103
      dxy     :     0.002139

 12 H s       :     0.729901  s :     0.729901
      pz      :     0.005628  p :     0.023642
      px      :     0.008666
      py      :     0.009348

 13 H s       :     0.640062  s :     0.640062
      pz      :     0.021155  p :     0.037303
      px      :     0.007615
      py      :     0.008533

 14 H s       :     0.847487  s :     0.847487
      pz      :     0.006659  p :     0.010867
      px      :     0.001843
      py      :     0.002365

 15 H s       :     0.711789  s :     0.711789
      pz      :     0.012083  p :     0.024230
      px      :     0.004694
      py      :     0.007453



                     *******************************
                     * LOEWDIN POPULATION ANALYSIS *
                     *******************************

----------------------
LOEWDIN ATOMIC CHARGES
----------------------
   0 C :    0.139288
   1 C :   -0.137548
   2 O :   -0.221636
   3 H :    0.185252
   4 O :   -0.151434
   5 C :   -0.038186
   6 H :    0.103093
   7 H :    0.093432
   8 C :    0.118005
   9 O :   -0.224498
  10 N :   -0.249400
  11 O :   -0.157314
  12 H :    0.131166
  13 H :    0.186088
  14 H :    0.088787
  15 H :    0.134905

-------------------------------
LOEWDIN REDUCED ORBITAL CHARGES
-------------------------------
  0 C s       :     2.862905  s :     2.862905
      pz      :     1.014604  p :     2.718172
      px      :     0.872327
      py      :     0.831242
      dz2     :     0.083679  d :     0.279635
      dxz     :     0.053957
      dyz     :     0.035761
      dx2y2   :     0.048962
      dxy     :     0.057275

  1 C s       :     2.918798  s :     2.918798
      pz      :     1.025895  p :     3.145473
      px      :     1.054841
      py      :     1.064737
      dz2     :     0.023610  d :     0.073278
      dxz     :     0.014271
      dyz     :     0.008750
      dx2y2   :     0.012294
      dxy     :     0.014354

  2 O s       :     3.567834  s :     3.567834
      pz      :     1.438210  p :     4.597632
      px      :     1.528834
      py      :     1.630588
      dz2     :     0.015306  d :     0.056170
      dxz     :     0.014007
      dyz     :     0.015043
      dx2y2   :     0.005215
      dxy     :     0.006599

  3 H s       :     0.700705  s :     0.700705
      pz      :     0.031599  p :     0.114043
      px      :     0.023884
      py      :     0.058560

  4 O s       :     3.498503  s :     3.498503
      pz      :     1.387165  p :     4.604414
      px      :     1.543940
      py      :     1.673309
      dz2     :     0.018096  d :     0.048517
      dxz     :     0.006677
      dyz     :     0.002700
      dx2y2   :     0.008836
      dxy     :     0.012208

  5 C s       :     2.891263  s :     2.891263
      pz      :     1.056410  p :     3.019746
      px      :     0.961695
      py      :     1.001641
      dz2     :     0.031538  d :     0.127178
      dxz     :     0.018463
      dyz     :     0.012369
      dx2y2   :     0.029163
      dxy     :     0.035645

  6 H s       :     0.856494  s :     0.856494
      pz      :     0.008140  p :     0.040413
      px      :     0.008738
      py      :     0.023535

  7 H s       :     0.865628  s :     0.865628
      pz      :     0.012099  p :     0.040941
      px      :     0.020138
      py      :     0.008703

  8 C s       :     2.875604  s :     2.875604
      pz      :     0.914550  p :     2.727242
      px      :     0.846492
      py      :     0.966200
      dz2     :     0.054841  d :     0.279149
      dxz     :     0.066456
      dyz     :     0.066052
      dx2y2   :     0.054650
      dxy     :     0.037151

  9 O s       :     3.569740  s :     3.569740
      pz      :     1.609475  p :     4.599065
      px      :     1.546075
      py      :     1.443515
      dz2     :     0.011002  d :     0.055694
      dxz     :     0.015459
      dyz     :     0.012046
      dx2y2   :     0.007826
      dxy     :     0.009361

 10 N s       :     3.207517  s :     3.207517
      pz      :     1.308621  p :     3.985198
      px      :     1.167555
      py      :     1.509023
      dz2     :     0.020658  d :     0.056685
      dxz     :     0.006680
      dyz     :     0.002272
      dx2y2   :     0.007221
      dxy     :     0.019855

 11 O s       :     3.496008  s :     3.496008
      pz      :     1.651630  p :     4.612666
      px      :     1.567884
      py      :     1.393152
      dz2     :     0.006569  d :     0.048639
      dxz     :     0.011829
      dyz     :     0.011098
      dx2y2   :     0.011092
      dxy     :     0.008052

 12 H s       :     0.791225  s :     0.791225
      pz      :     0.014822  p :     0.077609
      px      :     0.029068
      py      :     0.033719

 13 H s       :     0.700497  s :     0.700497
      pz      :     0.068615  p :     0.113415
      px      :     0.020921
      py      :     0.023878

 14 H s       :     0.872252  s :     0.872252
      pz      :     0.026548  p :     0.038961
      px      :     0.005769
      py      :     0.006643

 15 H s       :     0.784703  s :     0.784703
      pz      :     0.046556  p :     0.080391
      px      :     0.012419
      py      :     0.021415



                      *****************************
                      * MAYER POPULATION ANALYSIS *
                      *****************************

  NA   - Mulliken gross atomic population
  ZA   - Total nuclear charge
  QA   - Mulliken gross atomic charge
  VA   - Mayer's total valence
  BVA  - Mayer's bonded valence
  FA   - Mayer's free valence

  ATOM       NA         ZA         QA         VA         BVA        FA
  0 C      5.4947     6.0000     0.5053     3.9574     3.9574     0.0000
  1 C      6.2483     6.0000    -0.2483     3.8104     3.8104     0.0000
  2 O      8.4179     8.0000    -0.4179     2.1100     2.1100    -0.0000
  3 H      0.6778     1.0000     0.3222     0.9144     0.9144    -0.0000
  4 O      8.4568     8.0000    -0.4568     2.0522     2.0522    -0.0000
  5 C      6.0559     6.0000    -0.0559     3.8924     3.8924     0.0000
  6 H      0.8373     1.0000     0.1627     0.9501     0.9501    -0.0000
  7 H      0.8526     1.0000     0.1474     0.9524     0.9524     0.0000
  8 C      5.4999     6.0000     0.5001     3.9112     3.9112     0.0000
  9 O      8.4165     8.0000    -0.4165     2.0930     2.0930    -0.0000
 10 N      7.5557     7.0000    -0.5557     2.8976     2.8976     0.0000
 11 O      8.4613     8.0000    -0.4613     2.0278     2.0278     0.0000
 12 H      0.7535     1.0000     0.2465     0.9232     0.9232     0.0000
 13 H      0.6774     1.0000     0.3226     0.9143     0.9143     0.0000
 14 H      0.8584     1.0000     0.1416     0.9429     0.9429    -0.0000
 15 H      0.7360     1.0000     0.2640     0.9311     0.9311     0.0000

  Mayer bond orders larger than 0.100000
B(  0-C ,  1-C ) :   0.9506 B(  0-C ,  4-O ) :   1.0853 B(  0-C ,  9-O ) :   1.8790 
B(  1-C ,  5-C ) :   0.9694 B(  1-C ,  6-H ) :   0.9273 B(  1-C ,  7-H ) :   0.9262 
B(  2-O ,  8-C ) :   1.9132 B(  3-H , 11-O ) :   0.8512 B(  4-O , 13-H ) :   0.8517 
B(  5-C ,  8-C ) :   0.8806 B(  5-C , 10-N ) :   1.0700 B(  5-C , 14-H ) :   0.9193 
B(  8-C , 11-O ) :   1.0661 B( 10-N , 12-H ) :   0.9038 B( 10-N , 15-H ) :   0.8778 


-------
TIMINGS
-------

Total SCF time: 0 days 0 hours 0 min 3 sec 

Total time                  ....       3.143 sec
Sum of individual times     ....       2.792 sec  ( 88.8%)

SCF preparation             ....       0.029 sec  (  0.9%)
Fock matrix formation       ....       2.734 sec  ( 87.0%)
  Startup                   ....       0.001 sec  (  0.0% of F)
  Split-RI-J                ....       0.937 sec  ( 34.3% of F)
  XC integration            ....       2.091 sec  ( 76.5% of F)
    XC Preparation          ....       0.000 sec  (  0.0% of XC)
    Basis function eval.    ....       0.772 sec  ( 36.9% of XC)
    Density eval.           ....       0.446 sec  ( 21.3% of XC)
    XC-Functional eval.     ....       0.423 sec  ( 20.2% of XC)
    XC-Potential eval.      ....       0.391 sec  ( 18.7% of XC)
Diagonalization             ....       0.000 sec  (  0.0%)
Density matrix formation    ....       0.002 sec  (  0.1%)
Total Energy calculation    ....       0.000 sec  (  0.0%)
Population analysis         ....       0.010 sec  (  0.3%)
Orbital Transformation      ....       0.002 sec  (  0.1%)
Orbital Orthonormalization  ....       0.000 sec  (  0.0%)
DIIS solution               ....       0.002 sec  (  0.1%)
SOSCF solution              ....       0.012 sec  (  0.4%)
Finished LeanSCF after   3.2 sec

Maximum memory used throughout the entire LEANSCF-calculation: 18.0 MB



-------------------------------------------------------------------------------
                          DFT DISPERSION CORRECTION                            
-------------------------------------------------------------------------------
Active option DFTDOPT                   ...         2   
Final C6-coefficient scaling factor     ...     1.250
Final VDW-radii scaling factor          ...     1.100
Damping factor alpha                    ...    20.000
-------------------------   ----------------
Dispersion correction           -0.020270102
-------------------------   ----------------


-------------------------   --------------------
FINAL SINGLE POINT ENERGY      -511.999263015403
-------------------------   --------------------

                                *** OPTIMIZATION RUN DONE ***


------------------------------------------------------------------------------
                              ORCA PROPERTY CALCULATIONS
------------------------------------------------------------------------------

GBWName                                 ... 3.gbw
Number of atoms                         ...     16
Number of basis functions               ...    161
Max core memory                         ...   4096 MB

Electric properties:
Dipole moment                           ... YES
Quadrupole moment                       ...  NO
Static polarizability (Dipole/Dipole)   ...  NO
Static polarizability (Dipole/Quad.)    ...  NO
Static polarizability (Quad./Quad.)     ...  NO
Static polarizability (Velocity)        ...  NO
Static hyperpolarizability              ...  NO

Atomic electric properties:
Dipole moment                           ...  NO
Quadrupole moment                       ...  NO
Static polarizability                   ...  NO

Choice of electric origin               ... Center of mass
Position of electric origin             ...    -6.516044     4.261112     1.067112

General magnetic properties:
Magnetizability                         ...  NO

EPR properties:
g-Tensor (aka g-matrix)                 ...  NO
Zero-Field splitting spin-orbit         ...  NO
Zero-field splitting spin-spin          ...  NO
Hyperfine couplings                     ...  NO (   0 nuclei)
Quadrupole couplings                    ...  NO (   0 nuclei)
Contact density                         ...  NO (   0 nuclei)

NMR properties:
Chemical shifts                         ...  NO (   0 nuclei)
Spin-rotation constants                 ...  NO (   0 nuclei)
Spin-spin couplings                     ...  NO (   0 nuclei,    0 pairs)

Choice of magnetic origin               ... GIAO
Position of magnetic origin             ...     0.000000     0.000000     0.000000

Properties with geometric perturbations:
SCF Hessian                             ...  NO
IR spectrum                             ...  NO
VCD spectrum                            ...  NO
X-ray spectroscopy properties:
SCF XES/XAS/RIXS spectra                ...  NO

SCF SOC stabilization energy            ...  NO
Diagonal Born-Oppenheimer correction    ...  NO

-------------
DIPOLE MOMENT
-------------

Method             : SCF
Type of density    : Electron Density
Multiplicity       :   1
Irrep              :   0
Energy             :  -511.9789929131327426 Eh
Basis              : AO
                                X                 Y                 Z
Electronic contribution:     -1.758545126       1.926057640       2.790561041
Nuclear contribution   :      0.983908331      -1.384576017      -3.186930056
                        -----------------------------------------
Total Dipole Moment    :     -0.774636795       0.541481622      -0.396369015
                        -----------------------------------------
Magnitude (a.u.)       :      1.024877021
Magnitude (Debye)      :      2.605030361



--------------------
Rotational spectrum 
--------------------
 
Rotational constants in cm-1:             0.071000             0.045500             0.037330 
Rotational constants in MHz :          2128.526371          1364.041074          1119.132992 

Dipole components along the rotational axes: 
x,y,z [a.u.] :    -0.367084    -0.869935     0.398542 
x,y,z [Debye]:    -0.933054    -2.211198     1.013014 

 

Dipole moment calculation done in   0.0 sec 

Maximum memory used throughout the entire PROP-calculation: 10.3 MB

--------------------------------
SUGGESTED CITATIONS FOR THIS RUN
--------------------------------

Below you find a list of papers that are relevant to this ORCA run
We neither can nor want to force you to cite these papers, but we appreciate if you do
You receive ORCA, which is the product of decades of hard work by many enthusiastic individuals, for free
The only thing we kindly ask in return is that you cite our papers,
We deeply appreciate it, if you show your appreciation for ORCA by not just citing the generic ORCA reference.

Please note that relegating all ORCA citations to the supporting information does *not* help us.
SI sections are not indexed - citations you put there will not count into any citation statistics
But we need these citations in order to attract the funding resources that allow us to do what we are doing

Therefore, if you are a happy ORCA user, please consider citing a few of the papers listed below in the main body of your paper

In addition to the list printed below, the program has created the file 3.bibtex that contains the list in bibtex format
You can import this file easily into all common literature databanks and citation aid programs


List of essential papers. We consider these as the minimum necessary citations

  1. Neese, F.
     Software update: the ORCA program system, version 6.0
     WIRES Comput. Molec. Sci. 2025 15(1), e70019
     doi.org/10.1002/wcms.7019

List of papers to cite with high priority. The work reported in these papers was absolutely
necessary for this run to complete.
Our perspective: the developers of density functionals and basis sets usually get cited in chemistry papers
Good! But without the algorithms to do something with them, the functionals or basis sets would not do anything.
Hence, in our opinion, the algorithm design and method developments papers are equally worthy of getting cited

  1. Neese, F.
     An improvement of the resolution of the identity approximation for the formation of the Coulomb matrix
     J. Comp. Chem. 2003 24(14), 1740-1747
     doi.org/10.1002/jcc.10318
  2. Grimme, S.
     Semiempirical GGA-type density functional constructed with a long-range dispersion correction
     J.Comput.Chem. 2006 27(15), 1787-1799
     doi.org/10.1002/jcc.20495
  3. Neese, F.
     The SHARK Integral Generation and Digestion System
     J. Comp. Chem. 2022 44(3), 381
     doi.org/10.1002/jcc.26942

List of suggested additional citations. These are papers that are important in the 'surrounding' of 
of this run, or papers that preceded the highly important papers. If you like your results we are grateful for a citation.

  1. Neese, F.
     The ORCA program system
     WIRES Comput. Molec. Sci. 2012 2(1), 73-78
     doi.org/10.1002/wcms.81
  2. Neese, F.
     Software update: the ORCA program system, version 4.0
     WIRES Comput. Molec. Sci. 2018 8(1), 1-6
     doi.org/10.1002/wcms.1327
  3. Neese, F.; Wennmohs, F.; Becker, U.; Riplinger, C.
     The ORCA quantum chemistry program package
     J. Chem. Phys. 2020 152(22), 224108
     doi.org/10.1063/5.0004608
  4. Neese, F.
     Software update: The ORCA program system—Version 5.0
     WIRES Comput. Molec. Sci. 2022 12(1), e1606
     doi.org/10.1002/wcms.1606

List of optional additional citations

  1. Neese, F.
     Approximate second-order SCF convergence for spin unrestricted wavefunctions
     Chem. Phys. Lett. 2000 325(1-3), 93-98
     doi.org/10.1016/s0009-2614(00)00662-x

Timings for individual modules:

Sum of individual times          ...       86.508 sec (=   1.442 min)
Startup calculation              ...        4.792 sec (=   0.080 min)   5.5 %
SCF iterations                   ...       51.972 sec (=   0.866 min)  60.1 %
Property calculations            ...        0.036 sec (=   0.001 min)   0.0 %
SCF Gradient evaluation          ...       29.693 sec (=   0.495 min)  34.3 %
Geometry relaxation              ...        0.015 sec (=   0.000 min)   0.0 %
                             ****ORCA TERMINATED NORMALLY****
TOTAL RUN TIME: 0 days 0 hours 1 minutes 26 seconds 792 msec
