
                                 *****************
                                 * O   R   C   A *
                                 *****************

                                            #,                                       
                                            ###                                      
                                            ####                                     
                                            #####                                    
                                            ######                                   
                                           ########,                                 
                                     ,,################,,,,,                         
                               ,,#################################,,                 
                          ,,##########################################,,             
                       ,#########################################, ''#####,          
                    ,#############################################,,   '####,        
                  ,##################################################,,,,####,       
                ,###########''''           ''''###############################       
              ,#####''   ,,,,##########,,,,          '''####'''          '####       
            ,##' ,,,,###########################,,,                        '##       
           ' ,,###''''                  '''############,,,                           
         ,,##''                                '''############,,,,        ,,,,,,###''
      ,#''                                            '''#######################'''  
     '                                                          ''''####''''         
             ,#######,   #######,   ,#######,      ##                                
            ,#'     '#,  ##    ##  ,#'     '#,    #''#        ,####,    ,#,          
            ##       ##  ##   ,#'  ##            #'  '#       #'       ,# #          
            ##       ##  #######   ##           ,######,      #####,      #          
            '#,     ,#'  ##    ##  '#,     ,#' ,#      #,     #,   #      #          
             '#######'   ##     ##  '#######'  #'      '#     '####' #    #          



                #########################################################
                #                        -***-                          #
                #          Department of theory and spectroscopy        #
                #                                                       #
                #                      Frank Neese                      #
                #                                                       #
                #     Directorship, Architecture, Infrastructure        #
                #                    SHARK, DRIVERS                     #
                #        Core code/Algorithms in most modules           #
                #                                                       #
                #        Max Planck Institute fuer Kohlenforschung      #
                #                Kaiser Wilhelm Platz 1                 #
                #                 D-45470 Muelheim/Ruhr                 #
                #                      Germany                          #
                #                                                       #
                #                  All rights reserved                  #
                #                        -***-                          #
                #########################################################


                         Program Version 6.1.0  -  RELEASE   -
                                (GIT: $679e74b$)
                          ($2025-06-10 18:02:51 +0200$)


 With contributions from (in alphabetic order):
[Max-Planck-Institut fuer Kohlenforschung]                               
  Daniel Aravena         : Magnetic Suceptibility                        
  Michael Atanasov       : Ab Initio Ligand Field Theory (pilot matlab implementation)
  Alexander A. Auer      : GIAO ZORA, VPT2 properties, NMR spectrum      
  Ute Becker             : All parallelization in ORCA, NUMFREQ, NUMCALC 
  Giovanni Bistoni       : ED, misc. LED, open-shell LED, HFLD           
  Dmytro Bykov           : pre 5.0 version of the SCF Hessian            
  Marcos Casanova-Páez   : Triplet and SCS-CIS(D). UHF-(DLPNO)-IP/EA/STEOM-CCSD. UHF-CVS-IP/STEOM-CCSD   
  Vijay G. Chilkuri      : MRCI spin determinant printing, contributions to CSF-ICE 
  Pauline Colinet        : FMM embedding                                 
  Dipayan Datta          : RHF DLPNO-CCSD density                        
  Achintya Kumar Dutta   : EOM-CC, STEOM-CC                              
  Nicolas Foglia         : Exact transition moments, OPA infrastructure, MCD improvements    
  Dmitry Ganyushin       : Spin-Orbit,Spin-Spin,Magnetic field MRCI      
  Miquel Garcia-Rates    : C-PCM and meta-GGA Hessian, CCSD/C-PCM, Gaussian charge scheme 
  Tiago L. C. Gouveia    : GS-ROHF, GS-ROCIS                             
  Yang Guo               : DLPNO-NEVPT2, F12-NEVPT2, CIM, IAO-localization        
  Andreas Hansen         : Spin unrestricted coupled pair/coupled cluster methods 
  Ingolf Harden          : AUTO-CI MPn and infrastructure                
  Benjamin Helmich-Paris : MC-RPA, TRAH-(SCF,CASSCF), AVAS, COSX integrals, SCF dyn. polar., MC-PDFT, srDFT 
  Lee Huntington         : MR-EOM, pCC                                   
  Robert Izsak           : Overlap fitted RIJCOSX, COSX-SCS-MP3, EOM     
  Riya Kayal             : Wick's Theorem for AUTO-CI, AUTO-CI UHF-CCSDT 
  Emily Kempfer          : AUTO-CI RHF CISDT and CCSDT, approximate NEVPT4
  Christian Kollmar      : KDIIS, OOCD, Brueckner-CCSD(T), CCSD density, CASPT2, CASPT2-K, improved NEVPT2 
  Axel Koslowski         : Symmetry handling                             
  Simone Kossmann        : meta-GGA functionals, TD-DFT gradient, OOMP2, (MP2 Hessian; deprecated post 5.0) 
  Lucas Lang             : DCDCAS, Hyperfine gauge corrections, ICE-SOC+SSC
  Marvin Lechner         : AUTO-CI (C++ implementation), FIC-MRCC        
  Spencer Leger          : CASSCF response                               
  Dagmar Lenk            : GEPOL surface, SMD, ORCA-2-JSON               
  Dimitrios Liakos       : Extrapolation schemes; Compound Job, Property file
  Dimitrios Manganas     : Further ROCIS development; embedding schemes. LFT, Crystal Embedding 
  Dimitrios Pantazis     : SARC Basis sets                               
  Anastasios Papadopoulos: AUTO-CI, single reference methods and gradients 
  Taras Petrenko         : pre 6.0 DFT Hessian and TD-DFT gradient,  ECA, NRVS 
  Petra Pikulova         : Analytic Raman intensities                    
  Peter Pinski           : DLPNO-MP2, DLPNO-MP2 Gradient                 
  Shashank Vittal Rao    : ES-AILFT, MagRelax                            
  Christoph Reimann      : Effective Core Potentials                     
  Marius Retegan         : Local ZFS, SOC                                
  Christoph Riplinger    : Optimizer, TS searches, QM/MM, DLPNO-CCSD(T), (RO)-DLPNO pert. Triples 
  Michael Roemelt        : Original ROCIS implementation, recursive CI coupling coefficients
  Masaaki Saitow         : Open-shell DLPNO-CCSD energy and density      
  Barbara Sandhoefer     : DKH picture change effects                    
  Yorick L. A. Schmerwitz: GMF and freeze-and-release deltaSCF, NEB S-IDPP initial path                    
  Kantharuban Sivalingam : CASSCF convergence/infrastructure, NEVPT2, NEVPT3, NEVPT4(SD), FIC-MRCI and CEPA variants
  Bernardo de Souza      : ESD, SOC TD-DFT                               
  Georgi L. Stoychev     : AutoAux, RI-MP2 NMR, DLPNO-MP2 response, X2C  
  Van Anh Tran           : RI-MP2 g-tensors                              
  Willem Van den Heuvel  : Paramagnetic NMR                              
  Zikuan Wang            : NOTCH, Electric field optimization            
  Frank Wennmohs         : Technical directorship and infrastructure     
  Hang Xu                : AUTO-CI-Response properties                   
                                                                         
[FACCTs GmbH]                                                            
  Markus Bursch, Nicolas Foglia, Miquel Garcia-Rates, Ingolf Harden, Hagen Neugebauer, Anastasios Papadopoulos, 
  Christoph Riplinger, Bernardo de Souza, Georgi L. Stoychev                                                    
                                                                 
  APM, various basis sets, CI-OPT, improved COSX, DLPNO-Multilevel,           
  DOCKER, DRACO, updates on ESD, Fragmentator, GOAT, IRC, LR-CPCM, L-BFGS, MBIS, meta-GGA TD-DFT gradient, ML-optimized integration grids, 
  MM, NACMEs, nearIR, NEB, NEB-TS, NL-DFT gradient (VV10), 2- and 3-layer-ONIOM, interface openCOSMO-RS, QMMM,   
  Crystal-QMMM, RESP, rigid body optimization, SF, symmetry and pop. for TD-DFT, various functionals, SOLVATOR                                   
                                                                         
[Other institutions]                                                     
  V. Asgeirsson          : NEB                                           
  Christoph Bannwarth    : sTDA-DFT, sTD-DFT, PBEh-3c, B97-3c, D3        
  Giovanni Bistoni       : ETS/NOCV, ADLD/ADEX, COVALED                  
  Martin Brehm           : Molecular dynamics                            
  Ronald Cardenas        : ETS/NOCV                                      
  Martina Colucci        : COVALED                                       
  Sebastian Ehlert       : rSCAN, r2SCAN, r2SCAN-3c, D4, dhf basis sets  
  Marvin Friede          : D4 for Fr, Ra, Ac-Lr                          
  Lars Goerigk           : TD-DFT with DH, B97 family of functionals     
  Stefan Grimme          : VdW corrections, initial TS optimization, DFT functionals, gCP, sTDA/sTD-DF 
  Waldemar Hujo          : DFT-NL                                        
  H. Jonsson             : NEB                                           
  Holger Kruse           : gCP                                           
  Marcel Mueller         : wB97X-3c, vDZP basis set                      
  Hagen Neugebauer       : wr2SCAN, Native XTB                           
  Gianluca Regni         : ADLD/ADEX                                     
  Tobias Risthaus        : pre 6.0 range-separated hybrid DFT and stability analysis
  Lukas Wittmann         : regularized MP2, r2SCAN double-hybrids, wr2SCAN        
                                                                         
We gratefully acknowledge several colleagues who have allowed us to      
interface, adapt or use parts of their codes:                            
  Ed Valeev, F. Pavosevic, A. Kumar             : LibInt (2-el integral package), F12 methods 
  Garnet Chan, S. Sharma, J. Yang, R. Olivares  : DMRG                   
  Ulf Ekstrom                                   : XCFun DFT Library      
  Mihaly Kallay                                 : mrcc  (arbitrary order and MRCC methods)
  Frank Weinhold                                : gennbo (NPA and NBO analysis)           
  Simon Mueller                                 : openCOSMO-RS                            
  Christopher J. Cramer and Donald G. Truhlar   : smd solvation model                     
  S Lehtola, MJT Oliveira, MAL Marques          : LibXC Library                           
  Liviu Ungur et al                             : ANISO software                          


 Your calculation uses the libint2 library for the computation of 2-el integrals
 For citations please refer to: http://libint.valeyev.net

 Your ORCA version has been built with support for libXC version: 7.0.0
 For citations please refer to: https://libxc.gitlab.io

 This ORCA versions uses:
   CBLAS   interface :  Fast vector & matrix operations
   LAPACKE interface :  Fast linear algebra routines
   SCALAPACK package :  Parallel linear algebra routines
   Shared memory     :  Shared parallel matrices
   BLAS/LAPACK       :  OpenBLAS 0.3.29  USE64BITINT DYNAMIC_ARCH NO_AFFINITY Haswell SINGLE_THREADED
        Core in use  :  Haswell
   Copyright (c) 2011-2014, The OpenBLAS Project


  ***********************************
  * Starting time: Sat Aug 30 16:26:16 2025
  * Host name:     chemlab03
  * Process ID:    82820
  * Working dir.:  /home/vivek/mm-project/vivek/xtb-goat/B97-D-opt/k/5
  ***********************************



***************************************
The coordinates will be read from file: /home/vivek/mm-project/vivek/xtb-goat/xtb-goat/k/K_CONF/5.xyz
***************************************


Your calculation utilizes empirical dispersion correction


Warning: RI is on but no J-basis has been assigned. Assigning Def2/J (nothing to worry about!)
================================================================================

----- Orbital basis set information -----
Your calculation utilizes the basis: 6-31G**
   H-He, Li-Ne : W. J. Hehre, R. Ditchfield and J.A. Pople, J. Chem. Phys. 56, 2257 (1972).
                 Note: He and Ne are unpublished basis sets taken from the Gaussian program.
                 Note: Li and B from J. D. Dill and J. A. Pople, J. Chem. Phys. 62, 2921 (1975).
   Na - Ar     : M. M. Francl, W. J. Pietro, W. J. Hehre, J. S. Binkley, M. S. Gordon, 
                 D. J. DeFrees and J. A. Pople, J. Chem. Phys. 77, 3654 (1982).
   K - Zn      : V. A. Rassolov, J. A. Pople, M. A. Ratner, and T. L. Windus, J. Chem. Phys. 109, 1223 (1998).

----- AuxJ basis set information -----
Your calculation utilizes the auxiliary basis: def2/J
   H-Rn: F. Weigend, Phys. Chem. Chem. Phys. 8, 1057 (2006).
   Fr-Lr: K. Eichkorn, F. Weigend, O. Treutler, R. Ahlrichs; Theor. Chem. Acc. 97, 119 (1997).

================================================================================
                                        WARNINGS
                       Please study these warnings very carefully!
================================================================================


WARNING: Geometry Optimization
  ===> : Switching off AutoStart
         For restart on a previous wavefunction, please use MOREAD

INFO   : The exchange functional is Grimme's B97(-D)
         As described in S. Grimme, J. Comput. Chem. 27, 1787 (2006).
         Note that this functional defaults to a pure GGA. 

INFO   : The correlation functional is Grimme's B97(-D)
         As described in S. Grimme, J. Comput. Chem. 27, 1787 (2006).

================================================================================
                                       INPUT FILE
================================================================================
NAME = 5.inp
|  1> ! B97-D 6-31G** opt
|  2> 
|  3> * xyzfile 0 1 /home/vivek/mm-project/vivek/xtb-goat/xtb-goat/k/K_CONF/5.xyz
|  4> 
|  5>                          ****END OF INPUT****
================================================================================

                       *****************************
                       * Geometry Optimization Run *
                       *****************************

Geometry optimization settings:
Update method            Update   .... BFGS
Choice of coordinates    CoordSys .... (2022) Redundant Internals
Initial Hessian          InHess   .... Almloef's Model
Max. no of cycles        MaxIter  .... 72

Convergence Tolerances:
Energy Change            TolE     ....  5.0000e-06 Eh
Max. Gradient            TolMAXG  ....  3.0000e-04 Eh/bohr
RMS Gradient             TolRMSG  ....  1.0000e-04 Eh/bohr
Max. Displacement        TolMAXD  ....  4.0000e-03 bohr
RMS Displacement         TolRMSD  ....  2.0000e-03 bohr
Strict Convergence                .... False

------------------------------------------------------------------------------
                        ORCA OPTIMIZATION COORDINATE SETUP
------------------------------------------------------------------------------

The optimization will be done in redundant internal coordinates (2022)
Making redundant internal coordinates   ...  (2022 redundants) done
Evaluating the initial hessian          ...  (Almloef) done
Evaluating the coordinates              ...  done
Calculating the B-matrix                .... done
Calculating the G-matrix                .... done
The number of degrees of freedom        ....  104

    -----------------------------------------------------------------
                    Redundant Internal Coordinates


    -----------------------------------------------------------------
         Definition                    Initial Value    Approx d2E/dq
    -----------------------------------------------------------------
      1. B(C   1,C   0)                  1.5356         0.366034   
      2. B(N   4,H   2)                  1.0150         0.424887   
      3. B(N   4,C   0)                  1.4512         0.446850   
      4. B(N   4,H   3)                  1.0150         0.424815   
      5. B(C   5,C   1)                  1.5259         0.379227   
      6. B(H   6,C   1)                  1.0937         0.355193   
      7. B(H   7,C   1)                  1.0941         0.354687   
      8. B(C   8,C   5)                  1.5278         0.376602   
      9. B(H   9,C   5)                  1.0929         0.356330   
     10. B(H  10,C   5)                  1.0911         0.358704   
     11. B(C  11,C   8)                  1.5392         0.361111   
     12. B(H  12,C   8)                  1.0906         0.359342   
     13. B(H  13,C   8)                  1.0914         0.358250   
     14. B(C  14,C  11)                  1.5246         0.381122   
     15. B(N  16,C  11)                  1.4485         0.451323   
     16. B(O  17,H  15)                  0.9709         0.499582   
     17. B(O  17,C  14)                  1.3376         0.678289   
     18. B(H  18,C   0)                  1.0935         0.355459   
     19. B(H  19,C   0)                  1.0937         0.355217   
     20. B(H  20,N  16)                  1.0152         0.424504   
     21. B(O  21,C  14)                  1.2029         1.112701   
     22. B(H  22,C  11)                  1.0969         0.351038   
     23. B(H  23,N  16)                  1.0145         0.425640   
     24. A(C   1,C   0,H  19)          109.4824         0.322513   
     25. A(C   1,C   0,N   4)          114.8193         0.371046   
     26. A(N   4,C   0,H  18)          107.4703         0.331325   
     27. A(C   1,C   0,H  18)          109.4718         0.322548   
     28. A(H  18,C   0,H  19)          107.8950         0.289627   
     29. A(N   4,C   0,H  19)          107.4699         0.331288   
     30. A(C   5,C   1,H   6)          109.3092         0.324388   
     31. A(C   5,C   1,H   7)          109.4936         0.324312   
     32. A(C   0,C   1,H   6)          109.1569         0.322509   
     33. A(C   0,C   1,C   5)          111.9720         0.363018   
     34. A(H   6,C   1,H   7)          107.6955         0.289525   
     35. A(C   0,C   1,H   7)          109.1162         0.322434   
     36. A(C   0,N   4,H   3)          110.1907         0.338361   
     37. A(C   0,N   4,H   2)          110.1570         0.338371   
     38. A(H   2,N   4,H   3)          107.5018         0.301487   
     39. A(C   8,C   5,H  10)          109.6299         0.324542   
     40. A(C   1,C   5,H  10)          108.8965         0.324913   
     41. A(C   8,C   5,H   9)          109.8702         0.324188   
     42. A(C   1,C   5,H   9)          109.1554         0.324558   
     43. A(C   1,C   5,C   8)          111.3584         0.364789   
     44. A(H   9,C   5,H  10)          107.8552         0.290182   
     45. A(H  12,C   8,H  13)          108.6160         0.290508   
     46. A(C  11,C   8,H  12)          107.5936         0.322407   
     47. A(C  11,C   8,H  13)          108.1277         0.322246   
     48. A(C   5,C   8,H  13)          109.5484         0.324474   
     49. A(C   5,C   8,H  12)          109.4367         0.324637   
     50. A(C   5,C   8,C  11)          113.3988         0.361750   
     51. A(C  14,C  11,N  16)          112.6236         0.374279   
     52. A(C   8,C  11,N  16)          111.0732         0.370818   
     53. A(C   8,C  11,C  14)          109.6768         0.362488   
     54. A(N  16,C  11,H  22)          108.1917         0.331185   
     55. A(C  14,C  11,H  22)          107.2079         0.324027   
     56. A(C   8,C  11,H  22)          107.8694         0.321175   
     57. A(C  11,C  14,O  17)          112.6265         0.401835   
     58. A(O  17,C  14,O  21)          122.7998         0.484407   
     59. A(C  11,C  14,O  21)          124.5716         0.438920   
     60. A(H  20,N  16,H  23)          106.5898         0.301537   
     61. A(C  11,N  16,H  23)          110.1402         0.339034   
     62. A(C  11,N  16,H  20)          109.5358         0.338883   
     63. A(C  14,O  17,H  15)          110.4741         0.373308   
     64. D(H   6,C   1,C   0,H  19)   -179.6668         0.010725   
     65. D(H   6,C   1,C   0,N   4)    -58.7059         0.010725   
     66. D(H   6,C   1,C   0,H  18)     62.2476         0.010725   
     67. D(C   5,C   1,C   0,N   4)   -179.8791         0.010725   
     68. D(C   5,C   1,C   0,H  18)    -58.9256         0.010725   
     69. D(C   5,C   1,C   0,H  19)     59.1600         0.010725   
     70. D(H   2,N   4,C   0,C   1)     59.4052         0.017031   
     71. D(H   3,N   4,C   0,H  18)    178.9151         0.017031   
     72. D(H   3,N   4,C   0,C   1)    -59.0403         0.017031   
     73. D(H   2,N   4,C   0,H  19)   -178.5369         0.017031   
     74. D(H   2,N   4,C   0,H  18)    -62.6394         0.017031   
     75. D(H   9,C   5,C   1,C   0)    -59.0261         0.011464   
     76. D(C   8,C   5,C   1,H   6)     58.4096         0.011464   
     77. D(C   8,C   5,C   1,C   0)    179.4948         0.011464   
     78. D(C   8,C   5,C   1,H   7)    -59.3453         0.011464   
     79. D(H   9,C   5,C   1,H   7)     62.1338         0.011464   
     80. D(H   9,C   5,C   1,H   6)    179.8887         0.011464   
     81. D(H  12,C   8,C   5,H   9)    175.5455         0.011315   
     82. D(H  12,C   8,C   5,C   1)    -63.3925         0.011315   
     83. D(C  11,C   8,C   5,H  10)    -62.9455         0.011315   
     84. D(C  11,C   8,C   5,H   9)     55.4166         0.011315   
     85. D(H  12,C   8,C   5,H  10)     57.1833         0.011315   
     86. D(C  11,C   8,C   5,C   1)    176.4786         0.011315   
     87. D(N  16,C  11,C   8,H  13)   -172.6687         0.010457   
     88. D(N  16,C  11,C   8,H  12)    -55.5271         0.010457   
     89. D(N  16,C  11,C   8,C   5)     65.6434         0.010457   
     90. D(C  14,C  11,C   8,H  13)     62.1893         0.010457   
     91. D(C  14,C  11,C   8,H  12)    179.3309         0.010457   
     92. D(C  14,C  11,C   8,C   5)    -59.4985         0.010457   
     93. D(O  17,C  14,C  11,N  16)    171.5556         0.010835   
     94. D(O  17,C  14,C  11,C   8)    -64.2005         0.010835   
     95. D(O  21,C  14,C  11,N  16)     -7.9152         0.010835   
     96. D(O  21,C  14,C  11,C   8)    116.3288         0.010835   
     97. D(O  17,C  14,C  11,H  22)     52.6649         0.010835   
     98. D(H  23,N  16,C  11,C  14)    -63.4620         0.017378   
     99. D(H  23,N  16,C  11,C   8)    173.0671         0.017378   
    100. D(H  20,N  16,C  11,H  22)    171.7775         0.017378   
    101. D(H  20,N  16,C  11,C  14)     53.4626         0.017378   
    102. D(H  20,N  16,C  11,C   8)    -70.0083         0.017378   
    103. D(H  15,O  17,C  14,O  21)     -0.7324         0.034252   
    104. D(H  15,O  17,C  14,C  11)    179.7860         0.034252   
    -----------------------------------------------------------------

Number of atoms                         .... 24
Number of degrees of freedom            .... 104


         *************************************************************
         *                GEOMETRY OPTIMIZATION CYCLE   1            *
         *************************************************************
---------------------------------
CARTESIAN COORDINATES (ANGSTROEM)
---------------------------------
  C    -13.881015    6.031952    1.432524
  C    -12.678707    6.794550    0.857356
  H    -15.347432    7.376572    0.993166
  H    -14.729288    7.546970    2.499453
  N    -15.010428    6.864886    1.802338
  C    -11.531885    5.857951    0.488592
  H    -12.995712    7.345947   -0.032433
  H    -12.331312    7.524448    1.594696
  C    -10.348568    6.629473   -0.093384
  H    -11.215852    5.309834    1.379683
  H    -11.890315    5.130949   -0.241753
  C     -9.131187    5.739683   -0.402424
  H    -10.651018    7.109408   -1.024800
  H    -10.034523    7.402039    0.610659
  C     -8.657318    5.056216    0.875305
  H     -7.920812    5.458291    2.588869
  N     -9.430397    4.796861   -1.460636
  O     -8.210777    5.925466    1.788695
  H    -14.236468    5.304206    0.697779
  H    -13.571173    5.483135    2.326398
  H    -10.084802    4.099815   -1.119265
  O     -8.666622    3.867176    1.057153
  H     -8.316657    6.390348   -0.743669
  H     -8.589985    4.297202   -1.731235

----------------------------
CARTESIAN COORDINATES (A.U.)
----------------------------
  NO LB      ZA    FRAG     MASS         X           Y           Z
   0 C     6.0000    0    12.011  -26.231317   11.398738    2.707077
   1 C     6.0000    0    12.011  -23.959285   12.839839    1.620168
   2 H     1.0000    0     1.008  -29.002444   13.939702    1.876812
   3 H     1.0000    0     1.008  -27.834320   14.261706    4.723282
   4 N     7.0000    0    14.007  -28.365598   12.972754    3.405925
   5 C     6.0000    0    12.011  -21.792105   11.069922    0.923305
   6 H     1.0000    0     1.008  -24.558337   13.881827   -0.061290
   7 H     1.0000    0     1.008  -23.302802   14.219146    3.013539
   8 C     6.0000    0    12.011  -19.555960   12.527889   -0.176469
   9 H     1.0000    0     1.008  -21.194888   10.034131    2.607224
  10 H     1.0000    0     1.008  -22.469438    9.696089   -0.456847
  11 C     6.0000    0    12.011  -17.255443   10.846428   -0.760471
  12 H     1.0000    0     1.008  -20.127508   13.434835   -1.936591
  13 H     1.0000    0     1.008  -18.962500   13.987827    1.153978
  14 C     6.0000    0    12.011  -16.359961    9.554864    1.654086
  15 H     1.0000    0     1.008  -14.968165   10.314675    4.892253
  16 N     7.0000    0    14.007  -17.820868    9.064754   -2.760202
  17 O     8.0000    0    15.999  -15.516120   11.197508    3.380144
  18 H     1.0000    0     1.008  -26.903026   10.023496    1.318612
  19 H     1.0000    0     1.008  -25.645800   10.361623    4.396256
  20 H     1.0000    0     1.008  -19.057514    7.747528   -2.115104
  21 O     8.0000    0    15.999  -16.377543    7.307903    1.997730
  22 H     1.0000    0     1.008  -15.716205   12.076008   -1.405331
  23 H     1.0000    0     1.008  -16.232720    8.120535   -3.271559

--------------------------------
INTERNAL COORDINATES (ANGSTROEM)
--------------------------------
 C      0   0   0     0.000000000000     0.00000000     0.00000000
 C      1   0   0     1.535551106835     0.00000000     0.00000000
 H      1   2   0     2.037502579069    98.91733533     0.00000000
 H      3   1   2     1.637082404988    66.32970938   266.22720879
 N      3   1   2     1.014965291820    41.96232562   232.26420625
 C      2   1   3     1.525911987221   111.97203251   204.16610606
 H      2   1   3     1.093734737545   109.15693557   325.33931148
 H      2   1   3     1.094123141298   109.11619121    82.78853578
 C      6   2   1     1.527802660425   111.35840281   179.49479025
 H      6   2   1     1.092864822397   109.15542385   300.97388859
 H      6   2   1     1.091057309185   108.89645762    58.48881372
 C      9   6   2     1.539236631576   113.39881075   176.47862476
 H      9   6   2     1.090573283068   109.43674332   296.60746138
 H      9   6   2     1.091402241796   109.54836725    55.58833605
 C     12   9   6     1.524555095384   109.67683064   300.50145127
 H     15  12   9     1.907985455863   141.09675496   295.96196993
 N     12   9   6     1.448534242824   111.07324647    65.64344147
 O     16  15  12     0.970881249872    41.05529407   359.68550980
 H      1   2   3     1.093531379722   109.47181341    96.90830718
 H      1   2   3     1.093716147055   109.48241195   214.99390535
 H     17  12   9     1.015210888514   109.53580828   289.99174970
 O     15  12   9     1.202902045425   124.57155242   116.32876619
 H     12   9   6     1.096937745554   107.86935617   184.05247156
 H     17  12   9     1.014482781429   110.14019845   173.06710978

---------------------------
INTERNAL COORDINATES (A.U.)
---------------------------
 C      0   0   0     0.000000000000     0.00000000     0.00000000
 C      1   0   0     2.901771056558     0.00000000     0.00000000
 H      1   2   0     3.850321871599    98.91733533     0.00000000
 H      3   1   2     3.093637404089    66.32970938   266.22720879
 N      3   1   2     1.918006436976    41.96232562   232.26420625
 C      2   1   3     2.883555760315   111.97203251   204.16610606
 H      2   1   3     2.066859117117   109.15693557   325.33931148
 H      2   1   3     2.067593093839   109.11619121    82.78853578
 C      6   2   1     2.887128614880   111.35840281   179.49479025
 H      6   2   1     2.065215215726   109.15542385   300.97388859
 H      6   2   1     2.061799510773   108.89645762    58.48881372
 C      9   6   2     2.908735688978   113.39881075   176.47862476
 H      9   6   2     2.060884833969   109.43674332   296.60746138
 H      9   6   2     2.062451338942   109.54836725    55.58833605
 C     12   9   6     2.880991606350   109.67683064   300.50145127
 H     15  12   9     3.605569979086   141.09675496   295.96196993
 N     12   9   6     2.737333014544   111.07324647    65.64344147
 O     16  15  12     1.834699670817    41.05529407   359.68550980
 H      1   2   3     2.066474826525   109.47181341    96.90830718
 H      1   2   3     2.066823986181   109.48241195   214.99390535
 H     17  12   9     1.918470547466   109.53580828   289.99174970
 O     15  12   9     2.273155431787   124.57155242   116.32876619
 H     12   9   6     2.072911925057   107.86935617   184.05247156
 H     17  12   9     1.917094624479   110.14019845   173.06710978

---------------------
BASIS SET INFORMATION
---------------------
There are 4 groups of distinct atoms

 Group   1 Type C   : 10s4p1d contracted to 3s2p1d pattern {631/31/1}
 Group   2 Type H   : 4s1p contracted to 2s1p pattern {31/1}
 Group   3 Type N   : 10s4p1d contracted to 3s2p1d pattern {631/31/1}
 Group   4 Type O   : 10s4p1d contracted to 3s2p1d pattern {631/31/1}

Atom   0C    basis set group =>   1
Atom   1C    basis set group =>   1
Atom   2H    basis set group =>   2
Atom   3H    basis set group =>   2
Atom   4N    basis set group =>   3
Atom   5C    basis set group =>   1
Atom   6H    basis set group =>   2
Atom   7H    basis set group =>   2
Atom   8C    basis set group =>   1
Atom   9H    basis set group =>   2
Atom  10H    basis set group =>   2
Atom  11C    basis set group =>   1
Atom  12H    basis set group =>   2
Atom  13H    basis set group =>   2
Atom  14C    basis set group =>   1
Atom  15H    basis set group =>   2
Atom  16N    basis set group =>   3
Atom  17O    basis set group =>   4
Atom  18H    basis set group =>   2
Atom  19H    basis set group =>   2
Atom  20H    basis set group =>   2
Atom  21O    basis set group =>   4
Atom  22H    basis set group =>   2
Atom  23H    basis set group =>   2
---------------------------------
AUXILIARY/J BASIS SET INFORMATION
---------------------------------
There are 4 groups of distinct atoms

 Group   1 Type C   : 12s5p4d2f1g contracted to 6s4p3d1f1g pattern {711111/2111/211/2/1}
 Group   2 Type H   : 5s2p1d contracted to 3s1p1d pattern {311/2/1}
 Group   3 Type N   : 12s5p4d2f1g contracted to 6s4p3d1f1g pattern {711111/2111/211/2/1}
 Group   4 Type O   : 12s5p4d2f1g contracted to 6s4p3d1f1g pattern {711111/2111/211/2/1}

Atom   0C    basis set group =>   1
Atom   1C    basis set group =>   1
Atom   2H    basis set group =>   2
Atom   3H    basis set group =>   2
Atom   4N    basis set group =>   3
Atom   5C    basis set group =>   1
Atom   6H    basis set group =>   2
Atom   7H    basis set group =>   2
Atom   8C    basis set group =>   1
Atom   9H    basis set group =>   2
Atom  10H    basis set group =>   2
Atom  11C    basis set group =>   1
Atom  12H    basis set group =>   2
Atom  13H    basis set group =>   2
Atom  14C    basis set group =>   1
Atom  15H    basis set group =>   2
Atom  16N    basis set group =>   3
Atom  17O    basis set group =>   4
Atom  18H    basis set group =>   2
Atom  19H    basis set group =>   2
Atom  20H    basis set group =>   2
Atom  21O    basis set group =>   4
Atom  22H    basis set group =>   2
Atom  23H    basis set group =>   2
------------------------------------------------------------------------------
                             ORCA STARTUP CALCULATIONS
                           -- RI-GTO INTEGRALS CHOSEN --
------------------------------------------------------------------------------
------------------------------------------------------------------------------
                   ___                                                        
                  /   \      - P O W E R E D   B Y -                         
                 /     \                                                     
                 |  |  |   _    _      __       _____    __    __             
                 |  |  |  | |  | |    /  \     |  _  \  |  |  /  |          
                  \  \/   | |  | |   /    \    | | | |  |  | /  /          
                 / \  \   | |__| |  /  /\  \   | |_| |  |  |/  /          
                |  |  |   |  __  | /  /__\  \  |    /   |      \           
                |  |  |   | |  | | |   __   |  |    \   |  |\   \          
                \     /   | |  | | |  |  |  |  | |\  \  |  | \   \       
                 \___/    |_|  |_| |__|  |__|  |_| \__\ |__|  \__/        
                                                                              
                      - O R C A' S   B I G   F R I E N D -                    
                                      &                                       
                       - I N T E G R A L  F E E D E R -                       
                                                                              
 v1 FN, 2020, v2 2021, v3 2022-2024                                           
------------------------------------------------------------------------------


----------------------
SHARK INTEGRAL PACKAGE
----------------------

Number of atoms                             ...     24
Number of basis functions                   ...    210
Number of shells                            ...    102
Maximum angular momentum                    ...      2
Integral batch strategy                     ... SHARK/LIBINT Hybrid
RI-J (if used) integral strategy            ... SPLIT-RIJ (Revised 2003 algorithm where possible)
Printlevel                                  ...      1
Contraction scheme used                     ... SEGMENTED contraction
Prescreening option                         ... SCHWARTZ
   Thresh                                   ... 2.500e-11
   Tcut                                     ... 2.500e-12
   Tpresel                                  ... 2.500e-12 
Coulomb Range Separation                    ... NOT USED
Exchange Range Separation                   ... NOT USED
Multipole approximations                    ... NOT USED
Finite Nucleus Model                        ... NOT USED
CABS basis                                  ... NOT available
Auxiliary Coulomb fitting basis             ... AVAILABLE
   # of basis functions in Aux-J            ...    644
   # of shells in Aux-J                     ...    220
   Maximum angular momentum in Aux-J        ...      4
Auxiliary J/K fitting basis                 ... NOT available
Auxiliary Correlation fitting basis         ... NOT available
Auxiliary 'external' fitting basis          ... NOT available

Checking pre-screening integrals            ... done (  0.0 sec) Dimension = 102
   => SHARK Basis and OBASIS are compatible. Storing Pre-screening
Shell pair information
Shell pair cut-off parameter TPreSel        ...   2.5e-12
Total number of shell pairs                 ...      5253
Shell pairs after pre-screening             ...      4372
Total number of primitive shell pairs       ...     24562
Primitive shell pairs kept                  ...     13327
          la=0 lb=0:   1450 shell pairs
          la=1 lb=0:   1644 shell pairs
          la=1 lb=1:    488 shell pairs
          la=2 lb=0:    473 shell pairs
          la=2 lb=1:    274 shell pairs
          la=2 lb=2:     43 shell pairs

Checking whether 4 symmetric matrices of dimension 210 fit in memory
:Max Core in MB      =   4096.00
 MB in use           =      9.22
 MB left             =   4086.78
 MB needed           =      0.68
 Data fit in memory  = YES
Calculating RI/J V-Matrix + Cholesky decomp.... done (  0.0 sec)
Calculating Nuclear repulsion               ... done (  0.0 sec) ENN=    556.215653338976 Eh

Diagonalization of the overlap matrix:
Smallest eigenvalue                        ... 2.689e-03
Time for diagonalization                   ...    0.002 sec
Threshold for overlap eigenvalues          ... 1.000e-07
Number of eigenvalues below threshold      ... 0
Time for construction of square roots      ...    0.001 sec
Total time needed                          ...    0.003 sec

-------------------
DFT GRID GENERATION
-------------------

General Integration Accuracy     IntAcc      ... 4.388
Radial Grid Type                 RadialGrid  ... OptM3 with GC (2021)
Angular Grid (max. ang.)         AngularGrid ... 4 (Lebedev-302)
Angular grid pruning method      GridPruning ... 4 (adaptive)
Weight generation scheme         WeightScheme... mBecke (2022)
Basis function cutoff            BFCut       ... 1.0000e-11
Integration weight cutoff        WCut        ... 1.0000e-14
Partially contracted basis set               ... off
Rotationally invariant grid construction     ... off
Angular grids for H and He will be reduced by one unit

Total number of grid points                  ...   104959
Total number of batches                      ...     1653
Average number of points per batch           ...       63
Average number of grid points per atom       ...     4373
Grids setup in   0.4 sec
Initializing property integral containers    ... done (  0.0 sec)

SHARK setup successfully completed in   0.5 seconds

Maximum memory used throughout the entire STARTUP-calculation: 44.1 MB
-------------------------------------------------------------------------------
                                 ORCA GUESS
                   Start orbitals & Density for SCF / CASSCF
-------------------------------------------------------------------------------

------------
SCF SETTINGS
------------
Hamiltonian:
 Density Functional     Method          .... DFT(GTOs)
 Exchange Functional    Exchange        .... B97(D)
 Correlation Functional Correlation     .... B97(D)
 Gradients option       PostSCFGGA      .... off
 RI-approximation to the Coulomb term is turned on
   Number of AuxJ basis functions       .... 644


General Settings:
 Integral files         IntName         .... 5
 Hartree-Fock type      HFTyp           .... RHF
 Total Charge           Charge          ....    0
 Multiplicity           Mult            ....    1
 Number of Electrons    NEL             ....   80
 Basis Dimension        Dim             ....  210
 Nuclear Repulsion      ENuc            ....    556.2156533390 Eh

Convergence Acceleration:
 AO-DIIS                CNVDIIS         .... on
   Start iteration      DIISMaxIt       ....    12
   Startup error        DIISStart       ....  0.200000
   # of expansion vecs  DIISMaxEq       ....     5
   Bias factor          DIISBfac        ....   1.050
   Max. coefficient     DIISMaxC        ....  10.000
 MO-DIIS                CNVKDIIS        .... off
 Trust-Rad. Augm. Hess. CNVTRAH         .... auto
   Auto Start mean grad. ratio tolernc. ....  1.125000
   Auto Start start iteration           ....    50
   Auto Start num. interpolation iter.  ....    10
   Max. Number of Micro iterations      ....    24
   Max. Number of Macro iterations      .... Maxiter - #DIIS iter
   Number of Davidson start vectors     ....     2
   Converg. threshold    (grad. norm)   ....   1.000e-05
   Grad. Scal. Fac. for Micro threshold ....   0.100
   Minimum threshold for Micro iter.    ....   1.000e-02
   NR start threshold (gradient norm)   ....   1.000e-04
   Initial trust radius                 ....   0.400
   Minimum AH scaling param. (alpha)    ....   1.000
   Maximum AH scaling param. (alpha)    .... 1000.000
   Quad. conv. algorithm                .... NR
   White noise on init. David. guess    .... on
   Maximum white noise                  ....   0.010
   Pseudo random numbers                .... off
   Inactive MOs                         .... canonical
   Orbital update algorithm             .... Taylor
   Preconditioner                       .... Diag
   Full preconditioner red. dimension   ....   250
 SOSCF                 CNVSOSCF           .... on
   Start iteration     SOSCFMaxIt         ....   150
   Startup grad/error  SOSCFStart         ....  0.003300
   Hessian update      SOSCFHessUp        .... L-BFGS
   Autom. constraints  SOSCFAutoConstrain .... off
 Level Shifting         CNVShift        .... on
   Level shift para.    LevelShift      ....    0.2500
   Turn off err/grad.   ShiftErr        ....    0.0010
 Zerner damping         CNVZerner       .... off
 Static damping         CNVDamp         .... on
   Fraction old density DampFac         ....    0.7000
   Max. Damping (<1)    DampMax         ....    0.9800
   Min. Damping (>=0)   DampMin         ....    0.0000
   Turn off err/grad.   DampErr         ....    0.1000

SCF Procedure:
 Maximum # iterations   MaxIter         ....   125
 SCF integral mode      SCFMode         .... Direct
   Integral package                     .... SHARK and LIBINT hybrid scheme
 Reset frequency        DirectResetFreq ....    20
 Integral Threshold     Thresh          ....  2.500e-11 Eh
 Primitive CutOff       TCut            ....  2.500e-12 Eh

Convergence Tolerance:
 Convergence Check Mode ConvCheckMode   .... Total+1el-Energy
 Convergence forced     ConvForced      .... 0
 Energy Change          TolE            ....  1.000e-08 Eh
 1-El. energy change                    ....  1.000e-05 Eh
 Orbital Gradient       TolG            ....  1.000e-05
 Orbital Rotation angle TolX            ....  1.000e-05
 DIIS Error             TolErr          ....  5.000e-07

------------------------------
INITIAL GUESS: MODEL POTENTIAL
------------------------------
Loading Hartree-Fock densities                     ... done
Calculating cut-offs                               ... done
Initializing the effective Hamiltonian             ... done
Setting up the integral package (SHARK)            ... done
Starting the Coulomb interaction                   ... done (   0.1 sec)
Making the grid                                    ... done (   0.1 sec)
Mapping shells                                     ... done
Starting the XC term evaluation                    ... done (   0.1 sec)
  promolecular density results
     # of electrons  =     79.992853298
     EX              =    -63.611172289
     EC              =     -3.478038118
     EX+EC           =    -67.089210407
Transforming the Hamiltonian                       ... done (   0.0 sec)
Diagonalizing the Hamiltonian                      ... done (   0.0 sec)
Back transforming the eigenvectors                 ... done (   0.0 sec)
Now organizing SCF variables                       ... done
                      ------------------
                      INITIAL GUESS DONE (   0.3 sec)
                      ------------------
             **** ENERGY FILE WAS UPDATED (5.en.tmp) ****
Finished Guess after   0.4 sec
Maximum memory used throughout the entire GUESS-calculation: 14.6 MB

-------------------------------------------------------------------------------------------
                                      ORCA LEAN-SCF
                              memory conserving SCF solver
-------------------------------------------------------------------------------------------

----------------------------------------D-I-I-S--------------------------------------------
Iteration    Energy (Eh)           Delta-E    RMSDP     MaxDP     DIISErr   Damp  Time(sec)
-------------------------------------------------------------------------------------------
               ***  Starting incremental Fock matrix formation  ***
    1    -496.2784049611549335     0.00e+00  3.49e-03  1.09e-01  2.61e-01  0.700   0.6
    2    -496.4800679389771858    -2.02e-01  2.30e-03  5.77e-02  1.01e-01  0.700   0.6
                               ***Turning on AO-DIIS***
    3    -496.5433642405270120    -6.33e-02  8.91e-04  1.70e-02  2.87e-02  0.700   0.6
    4    -496.5839183060983260    -4.06e-02  1.20e-03  1.99e-02  1.41e-02  0.000   0.6
    5    -496.6776099110699079    -9.37e-02  3.94e-04  8.38e-03  9.90e-03  0.000   0.6
                              *** Initializing SOSCF ***
---------------------------------------S-O-S-C-F--------------------------------------
Iteration    Energy (Eh)           Delta-E    RMSDP     MaxDP     MaxGrad    Time(sec)
--------------------------------------------------------------------------------------
    6    -496.6785558559673746    -9.46e-04  1.48e-04  2.62e-03  3.11e-03     0.6
               *** Restarting incremental Fock matrix formation ***
    7    -496.6786314326471938    -7.56e-05  1.26e-04  4.72e-03  9.83e-04     0.6
    8    -496.6785978446822583     3.36e-05  6.59e-05  3.49e-03  2.92e-03     0.5
    9    -496.6786424790685714    -4.46e-05  4.36e-05  9.42e-04  2.90e-04     0.5
   10    -496.6786400532570269     2.43e-06  2.46e-05  5.16e-04  2.45e-04     0.5
   11    -496.6786443033835212    -4.25e-06  6.33e-06  2.04e-04  3.21e-05     0.5
   12    -496.6786442401354407     6.32e-08  3.53e-06  1.33e-04  5.22e-05     0.5
   13    -496.6786443552817900    -1.15e-07  9.95e-07  2.51e-05  6.11e-06     0.5
   14    -496.6786443546399141     6.42e-10  5.47e-07  1.42e-05  7.51e-06     0.5
                 **** Energy Check signals convergence ****

               *****************************************************
               *                     SUCCESS                       *
               *           SCF CONVERGED AFTER  14 CYCLES          *
               *****************************************************

             **** ENERGY FILE WAS UPDATED (5.en.tmp) ****

----------------
TOTAL SCF ENERGY
----------------

Total Energy       :       -496.67864435552781 Eh          -13515.31302 eV

Components:
Nuclear Repulsion  :        556.21565333897649 Eh           15135.39740 eV
Electronic Energy  :      -1052.89429769450453 Eh          -28650.71041 eV
One Electron Energy:      -1778.96214418226918 Eh          -48408.02096 eV
Two Electron Energy:        726.06784648776477 Eh           19757.31055 eV

Virial components:
Potential Energy   :       -990.77503508934649 Eh          -26960.35934 eV
Kinetic Energy     :        494.09639073381868 Eh           13445.04632 eV
Virial Ratio       :          2.00522621429773

DFT components:
N(Alpha)           :       39.999956772173 electrons
N(Beta)            :       39.999956772173 electrons
N(Total)           :       79.999913544346 electrons
E(X)               :      -65.197250859410 Eh       
E(C)               :       -3.469532723624 Eh       
E(XC)              :      -68.666783583034 Eh       

---------------
SCF CONVERGENCE
---------------

  Last Energy change         ...   -6.4188e-10  Tolerance :   1.0000e-08
  Last MAX-Density change    ...    1.4189e-05  Tolerance :   1.0000e-07
  Last RMS-Density change    ...    5.4664e-07  Tolerance :   5.0000e-09
  Last DIIS Error            ...    3.1052e-03  Tolerance :   5.0000e-07
  Last Orbital Gradient      ...    7.5077e-06  Tolerance :   1.0000e-05
  Last Orbital Rotation      ...    7.7202e-06  Tolerance :   1.0000e-05


----------------
ORBITAL ENERGIES
----------------

  NO   OCC          E(Eh)            E(eV) 
   0   2.0000     -18.814289      -511.9628 
   1   2.0000     -18.753630      -510.3122 
   2   2.0000     -13.984573      -380.5396 
   3   2.0000     -13.977600      -380.3498 
   4   2.0000     -10.026804      -272.8432 
   5   2.0000      -9.946077      -270.6465 
   6   2.0000      -9.922241      -269.9979 
   7   2.0000      -9.906396      -269.5667 
   8   2.0000      -9.903357      -269.4840 
   9   2.0000      -9.899174      -269.3702 
  10   2.0000      -1.020880       -27.7796 
  11   2.0000      -0.931819       -25.3561 
  12   2.0000      -0.814158       -22.1544 
  13   2.0000      -0.800316       -21.7777 
  14   2.0000      -0.721296       -19.6274 
  15   2.0000      -0.668266       -18.1844 
  16   2.0000      -0.615810       -16.7570 
  17   2.0000      -0.566633       -15.4189 
  18   2.0000      -0.532794       -14.4981 
  19   2.0000      -0.516335       -14.0502 
  20   2.0000      -0.455797       -12.4029 
  21   2.0000      -0.449425       -12.2295 
  22   2.0000      -0.438907       -11.9433 
  23   2.0000      -0.420194       -11.4341 
  24   2.0000      -0.410024       -11.1573 
  25   2.0000      -0.388167       -10.5626 
  26   2.0000      -0.386525       -10.5179 
  27   2.0000      -0.371426       -10.1070 
  28   2.0000      -0.353402        -9.6166 
  29   2.0000      -0.346307        -9.4235 
  30   2.0000      -0.338314        -9.2060 
  31   2.0000      -0.319743        -8.7006 
  32   2.0000      -0.302091        -8.2203 
  33   2.0000      -0.293295        -7.9810 
  34   2.0000      -0.290665        -7.9094 
  35   2.0000      -0.286189        -7.7876 
  36   2.0000      -0.273702        -7.4478 
  37   2.0000      -0.223318        -6.0768 
  38   2.0000      -0.195353        -5.3158 
  39   2.0000      -0.178486        -4.8569 
  40   0.0000      -0.016196        -0.4407 
  41   0.0000       0.049787         1.3548 
  42   0.0000       0.064711         1.7609 
  43   0.0000       0.066811         1.8180 
  44   0.0000       0.091123         2.4796 
  45   0.0000       0.096796         2.6340 
  46   0.0000       0.102489         2.7889 
  47   0.0000       0.124720         3.3938 
  48   0.0000       0.136357         3.7105 
  49   0.0000       0.143595         3.9074 
  50   0.0000       0.158817         4.3216 
*Only the first 10 virtual orbitals were printed.

                    ********************************
                    * MULLIKEN POPULATION ANALYSIS *
                    ********************************

-----------------------
MULLIKEN ATOMIC CHARGES
-----------------------
   0 C :   -0.084183
   1 C :   -0.194976
   2 H :    0.231804
   3 H :    0.231147
   4 N :   -0.572888
   5 C :   -0.207812
   6 H :    0.092520
   7 H :    0.089883
   8 C :   -0.177777
   9 H :    0.106513
  10 H :    0.105720
  11 C :   -0.057854
  12 H :    0.117048
  13 H :    0.112592
  14 C :    0.491720
  15 H :    0.316886
  16 N :   -0.554635
  17 O :   -0.455141
  18 H :    0.106239
  19 H :    0.105672
  20 H :    0.247697
  21 O :   -0.419981
  22 H :    0.125690
  23 H :    0.244116
Sum of atomic charges:   -0.0000000

--------------------------------
MULLIKEN REDUCED ORBITAL CHARGES
--------------------------------
  0 C s       :     3.196696  s :     3.196696
      pz      :     1.034677  p :     2.835013
      px      :     0.866330
      py      :     0.934006
      dz2     :     0.005727  d :     0.052474
      dxz     :     0.009984
      dyz     :     0.012051
      dx2y2   :     0.011544
      dxy     :     0.013167

  1 C s       :     3.228719  s :     3.228719
      pz      :     1.009851  p :     2.929893
      px      :     0.941232
      py      :     0.978809
      dz2     :     0.004399  d :     0.036364
      dxz     :     0.006445
      dyz     :     0.011242
      dx2y2   :     0.005409
      dxy     :     0.008870

  2 H s       :     0.744226  s :     0.744226
      pz      :     0.009027  p :     0.023969
      px      :     0.007836
      py      :     0.007106

  3 H s       :     0.744882  s :     0.744882
      pz      :     0.009073  p :     0.023970
      px      :     0.006562
      py      :     0.008335

  4 N s       :     3.588202  s :     3.588202
      pz      :     1.215642  p :     3.955918
      px      :     1.457042
      py      :     1.283235
      dz2     :     0.002389  d :     0.028767
      dxz     :     0.004283
      dyz     :     0.011103
      dx2y2   :     0.005457
      dxy     :     0.005536

  5 C s       :     3.228517  s :     3.228517
      pz      :     1.018830  p :     2.942188
      px      :     0.941236
      py      :     0.982123
      dz2     :     0.004461  d :     0.037106
      dxz     :     0.006691
      dyz     :     0.011240
      dx2y2   :     0.005722
      dxy     :     0.008992

  6 H s       :     0.896012  s :     0.896012
      pz      :     0.005055  p :     0.011469
      px      :     0.002855
      py      :     0.003559

  7 H s       :     0.898666  s :     0.898666
      pz      :     0.004232  p :     0.011451
      px      :     0.002906
      py      :     0.004313

  8 C s       :     3.227240  s :     3.227240
      pz      :     1.031232  p :     2.914277
      px      :     0.916663
      py      :     0.966382
      dz2     :     0.005286  d :     0.036261
      dxz     :     0.006313
      dyz     :     0.009821
      dx2y2   :     0.005730
      dxy     :     0.009110

  9 H s       :     0.881910  s :     0.881910
      pz      :     0.005048  p :     0.011577
      px      :     0.002923
      py      :     0.003606

 10 H s       :     0.882660  s :     0.882660
      pz      :     0.004329  p :     0.011620
      px      :     0.003039
      py      :     0.004253

 11 C s       :     3.202385  s :     3.202385
      pz      :     0.859424  p :     2.797990
      px      :     1.022835
      py      :     0.915732
      dz2     :     0.014766  d :     0.057478
      dxz     :     0.009921
      dyz     :     0.014327
      dx2y2   :     0.006729
      dxy     :     0.011736

 12 H s       :     0.871426  s :     0.871426
      pz      :     0.005603  p :     0.011526
      px      :     0.002712
      py      :     0.003211

 13 H s       :     0.875830  s :     0.875830
      pz      :     0.004248  p :     0.011578
      px      :     0.002840
      py      :     0.004489

 14 C s       :     2.989694  s :     2.989694
      pz      :     0.834696  p :     2.394227
      px      :     0.785968
      py      :     0.773563
      dz2     :     0.018186  d :     0.124359
      dxz     :     0.008727
      dyz     :     0.048683
      dx2y2   :     0.019620
      dxy     :     0.029143

 15 H s       :     0.645197  s :     0.645197
      pz      :     0.017006  p :     0.037917
      px      :     0.010225
      py      :     0.010686

 16 N s       :     3.587271  s :     3.587271
      pz      :     1.477978  p :     3.938850
      px      :     1.231788
      py      :     1.229084
      dz2     :     0.006090  d :     0.028514
      dxz     :     0.003704
      dyz     :     0.006592
      dx2y2   :     0.001815
      dxy     :     0.010313

 17 O s       :     3.824618  s :     3.824618
      pz      :     1.301744  p :     4.607781
      px      :     1.691974
      py      :     1.614063
      dz2     :     0.002951  d :     0.022742
      dxz     :     0.001861
      dyz     :     0.008857
      dx2y2   :     0.003994
      dxy     :     0.005079

 18 H s       :     0.882975  s :     0.882975
      pz      :     0.004156  p :     0.010786
      px      :     0.002461
      py      :     0.004169

 19 H s       :     0.883550  s :     0.883550
      pz      :     0.004970  p :     0.010778
      px      :     0.002426
      py      :     0.003383

 20 H s       :     0.728299  s :     0.728299
      pz      :     0.006973  p :     0.024004
      px      :     0.008735
      py      :     0.008297

 21 O s       :     3.857749  s :     3.857749
      pz      :     1.703387  p :     4.534114
      px      :     1.467757
      py      :     1.362971
      dz2     :     0.002892  d :     0.028117
      dxz     :     0.000322
      dyz     :     0.007762
      dx2y2   :     0.007280
      dxy     :     0.009861

 22 H s       :     0.863299  s :     0.863299
      pz      :     0.002478  p :     0.011011
      px      :     0.004753
      py      :     0.003780

 23 H s       :     0.731968  s :     0.731968
      pz      :     0.007656  p :     0.023916
      px      :     0.009460
      py      :     0.006799



                     *******************************
                     * LOEWDIN POPULATION ANALYSIS *
                     *******************************

----------------------
LOEWDIN ATOMIC CHARGES
----------------------
   0 C :   -0.074424
   1 C :   -0.142264
   2 H :    0.119477
   3 H :    0.119141
   4 N :   -0.268060
   5 C :   -0.130292
   6 H :    0.061763
   7 H :    0.060550
   8 C :   -0.116002
   9 H :    0.067228
  10 H :    0.067436
  11 C :   -0.053231
  12 H :    0.075822
  13 H :    0.072703
  14 C :    0.099042
  15 H :    0.180918
  16 N :   -0.246139
  17 O :   -0.142102
  18 H :    0.065847
  19 H :    0.065483
  20 H :    0.125878
  21 O :   -0.222075
  22 H :    0.085474
  23 H :    0.127828

-------------------------------
LOEWDIN REDUCED ORBITAL CHARGES
-------------------------------
  0 C s       :     2.890978  s :     2.890978
      pz      :     1.073504  p :     3.068062
      px      :     0.977391
      py      :     1.017168
      dz2     :     0.011957  d :     0.115384
      dxz     :     0.021796
      dyz     :     0.024935
      dx2y2   :     0.024838
      dxy     :     0.031858

  1 C s       :     2.912217  s :     2.912217
      pz      :     1.067316  p :     3.148186
      px      :     1.027412
      py      :     1.053457
      dz2     :     0.009836  d :     0.081862
      dxz     :     0.014635
      dyz     :     0.023285
      dx2y2   :     0.011703
      dxy     :     0.022401

  2 H s       :     0.801890  s :     0.801890
      pz      :     0.032439  p :     0.078634
      px      :     0.023495
      py      :     0.022700

  3 H s       :     0.802243  s :     0.802243
      pz      :     0.029224  p :     0.078616
      px      :     0.020606
      py      :     0.028786

  4 N s       :     3.197453  s :     3.197453
      pz      :     1.236161  p :     4.012356
      px      :     1.457816
      py      :     1.318379
      dz2     :     0.005972  d :     0.058251
      dxz     :     0.009323
      dyz     :     0.021369
      dx2y2   :     0.009696
      dxy     :     0.011891

  5 C s       :     2.896206  s :     2.896206
      pz      :     1.069102  p :     3.151486
      px      :     1.024967
      py      :     1.057417
      dz2     :     0.009876  d :     0.082600
      dxz     :     0.015004
      dyz     :     0.023026
      dx2y2   :     0.012173
      dxy     :     0.022521

  6 H s       :     0.899283  s :     0.899283
      pz      :     0.018708  p :     0.038954
      px      :     0.008459
      py      :     0.011787

  7 H s       :     0.900612  s :     0.900612
      pz      :     0.014736  p :     0.038838
      px      :     0.008864
      py      :     0.015238

  8 C s       :     2.903010  s :     2.903010
      pz      :     1.078281  p :     3.131558
      px      :     1.008185
      py      :     1.045091
      dz2     :     0.011621  d :     0.081435
      dxz     :     0.014164
      dyz     :     0.020040
      dx2y2   :     0.012511
      dxy     :     0.023098

  9 H s       :     0.893129  s :     0.893129
      pz      :     0.019151  p :     0.039644
      px      :     0.008651
      py      :     0.011841

 10 H s       :     0.892805  s :     0.892805
      pz      :     0.015225  p :     0.039759
      px      :     0.009422
      py      :     0.015112

 11 C s       :     2.881416  s :     2.881416
      pz      :     0.980674  p :     3.040921
      px      :     1.054597
      py      :     1.005650
      dz2     :     0.033938  d :     0.130894
      dxz     :     0.021356
      dyz     :     0.035111
      dx2y2   :     0.013765
      dxy     :     0.026725

 12 H s       :     0.884243  s :     0.884243
      pz      :     0.020892  p :     0.039935
      px      :     0.008489
      py      :     0.010554

 13 H s       :     0.887337  s :     0.887337
      pz      :     0.015023  p :     0.039961
      px      :     0.008436
      py      :     0.016502

 14 C s       :     2.860314  s :     2.860314
      pz      :     0.935587  p :     2.742583
      px      :     0.804539
      py      :     1.002457
      dz2     :     0.042789  d :     0.298061
      dxz     :     0.018626
      dyz     :     0.121330
      dx2y2   :     0.050515
      dxy     :     0.064802

 15 H s       :     0.703292  s :     0.703292
      pz      :     0.052876  p :     0.115790
      px      :     0.029431
      py      :     0.033483

 16 N s       :     3.193741  s :     3.193741
      pz      :     1.482158  p :     3.994556
      px      :     1.245611
      py      :     1.266787
      dz2     :     0.010768  d :     0.057841
      dxz     :     0.007573
      dyz     :     0.014242
      dx2y2   :     0.004889
      dxy     :     0.020370

 17 O s       :     3.470486  s :     3.470486
      pz      :     1.324723  p :     4.620670
      px      :     1.664949
      py      :     1.630998
      dz2     :     0.009822  d :     0.050947
      dxz     :     0.007013
      dyz     :     0.019966
      dx2y2   :     0.006273
      dxy     :     0.007873

 18 H s       :     0.896396  s :     0.896396
      pz      :     0.014676  p :     0.037757
      px      :     0.007871
      py      :     0.015210

 19 H s       :     0.896793  s :     0.896793
      pz      :     0.019022  p :     0.037725
      px      :     0.007090
      py      :     0.011612

 20 H s       :     0.794184  s :     0.794184
      pz      :     0.022283  p :     0.079938
      px      :     0.028572
      py      :     0.029084

 21 O s       :     3.554038  s :     3.554038
      pz      :     1.691444  p :     4.610009
      px      :     1.450769
      py      :     1.467796
      dz2     :     0.007257  d :     0.058027
      dxz     :     0.000431
      dyz     :     0.015490
      dx2y2   :     0.020515
      dxy     :     0.014334

 22 H s       :     0.875292  s :     0.875292
      pz      :     0.008075  p :     0.039233
      px      :     0.017135
      py      :     0.014024

 23 H s       :     0.793282  s :     0.793282
      pz      :     0.022699  p :     0.078890
      px      :     0.034546
      py      :     0.021645



                      *****************************
                      * MAYER POPULATION ANALYSIS *
                      *****************************

  NA   - Mulliken gross atomic population
  ZA   - Total nuclear charge
  QA   - Mulliken gross atomic charge
  VA   - Mayer's total valence
  BVA  - Mayer's bonded valence
  FA   - Mayer's free valence

  ATOM       NA         ZA         QA         VA         BVA        FA
  0 C      6.0842     6.0000    -0.0842     3.9087     3.9087     0.0000
  1 C      6.1950     6.0000    -0.1950     3.8775     3.8775     0.0000
  2 H      0.7682     1.0000     0.2318     0.9234     0.9234    -0.0000
  3 H      0.7689     1.0000     0.2311     0.9237     0.9237    -0.0000
  4 N      7.5729     7.0000    -0.5729     2.8892     2.8892    -0.0000
  5 C      6.2078     6.0000    -0.2078     3.8913     3.8913    -0.0000
  6 H      0.9075     1.0000     0.0925     0.9579     0.9579     0.0000
  7 H      0.9101     1.0000     0.0899     0.9584     0.9584    -0.0000
  8 C      6.1778     6.0000    -0.1778     3.8684     3.8684     0.0000
  9 H      0.8935     1.0000     0.1065     0.9576     0.9576    -0.0000
 10 H      0.8943     1.0000     0.1057     0.9543     0.9543    -0.0000
 11 C      6.0579     6.0000    -0.0579     3.8721     3.8721    -0.0000
 12 H      0.8830     1.0000     0.1170     0.9564     0.9564    -0.0000
 13 H      0.8874     1.0000     0.1126     0.9567     0.9567    -0.0000
 14 C      5.5083     6.0000     0.4917     3.9552     3.9552     0.0000
 15 H      0.6831     1.0000     0.3169     0.9186     0.9186     0.0000
 16 N      7.5546     7.0000    -0.5546     2.9056     2.9056    -0.0000
 17 O      8.4551     8.0000    -0.4551     2.0276     2.0276     0.0000
 18 H      0.8938     1.0000     0.1062     0.9510     0.9510    -0.0000
 19 H      0.8943     1.0000     0.1057     0.9509     0.9509     0.0000
 20 H      0.7523     1.0000     0.2477     0.9287     0.9287    -0.0000
 21 O      8.4200     8.0000    -0.4200     2.1121     2.1121     0.0000
 22 H      0.8743     1.0000     0.1257     0.9483     0.9483    -0.0000
 23 H      0.7559     1.0000     0.2441     0.9215     0.9215    -0.0000

  Mayer bond orders larger than 0.100000
B(  0-C ,  1-C ) :   0.9824 B(  0-C ,  4-N ) :   1.0286 B(  0-C , 18-H ) :   0.9503 
B(  0-C , 19-H ) :   0.9503 B(  1-C ,  5-C ) :   0.9932 B(  1-C ,  6-H ) :   0.9486 
B(  1-C ,  7-H ) :   0.9487 B(  2-H ,  4-N ) :   0.9150 B(  3-H ,  4-N ) :   0.9152 
B(  5-C ,  8-C ) :   1.0020 B(  5-C ,  9-H ) :   0.9410 B(  5-C , 10-H ) :   0.9431 
B(  8-C , 11-C ) :   0.9688 B(  8-C , 12-H ) :   0.9406 B(  8-C , 13-H ) :   0.9398 
B( 11-C , 14-C ) :   0.8980 B( 11-C , 16-N ) :   1.0591 B( 11-C , 22-H ) :   0.9243 
B( 14-C , 17-O ) :   1.0779 B( 14-C , 21-O ) :   1.9233 B( 15-H , 17-O ) :   0.8515 
B( 16-N , 20-H ) :   0.8965 B( 16-N , 23-H ) :   0.9077 

-------
TIMINGS
-------

Total SCF time: 0 days 0 hours 0 min 8 sec 

Total time                  ....       8.306 sec
Sum of individual times     ....       7.777 sec  ( 93.6%)

SCF preparation             ....       0.031 sec  (  0.4%)
Fock matrix formation       ....       7.668 sec  ( 92.3%)
  Startup                   ....       0.001 sec  (  0.0% of F)
  Split-RI-J                ....       2.809 sec  ( 36.6% of F)
  XC integration            ....       5.303 sec  ( 69.2% of F)
    XC Preparation          ....       0.000 sec  (  0.0% of XC)
    Basis function eval.    ....       1.910 sec  ( 36.0% of XC)
    Density eval.           ....       1.159 sec  ( 21.9% of XC)
    XC-Functional eval.     ....       0.962 sec  ( 18.1% of XC)
    XC-Potential eval.      ....       1.131 sec  ( 21.3% of XC)
Diagonalization             ....       0.000 sec  (  0.0%)
Density matrix formation    ....       0.006 sec  (  0.1%)
Total Energy calculation    ....       0.001 sec  (  0.0%)
Population analysis         ....       0.003 sec  (  0.0%)
Orbital Transformation      ....       0.008 sec  (  0.1%)
Orbital Orthonormalization  ....       0.000 sec  (  0.0%)
DIIS solution               ....       0.034 sec  (  0.4%)
SOSCF solution              ....       0.026 sec  (  0.3%)
Finished LeanSCF after   8.3 sec

Maximum memory used throughout the entire LEANSCF-calculation: 23.4 MB



-------------------------------------------------------------------------------
                          DFT DISPERSION CORRECTION                            
-------------------------------------------------------------------------------
Active option DFTDOPT                   ...         2   
Final C6-coefficient scaling factor     ...     1.250
Final VDW-radii scaling factor          ...     1.100
Damping factor alpha                    ...    20.000
-------------------------   ----------------
Dispersion correction           -0.034734699
-------------------------   ----------------


-------------------------   --------------------
FINAL SINGLE POINT ENERGY      -496.713379054892
-------------------------   --------------------

------------------------------------------------------------------------------
                         ORCA SCF GRADIENT CALCULATION
------------------------------------------------------------------------------

Nuc. rep. gradient        (SHARK) ... done (  0.0 sec)
HCore & Overlap gradient  (SHARK) ... done (  0.2 sec)
Split-RIJ-J gradient      (SHARK) ... done (  0.7 sec)
XC gradient                       ... done (  3.0 sec)
Dispersion correction             ... done (  0.0 sec)

-------------------
DISPERSION GRADIENT
-------------------

   1   C   :   -0.000330486    0.001195871   -0.000004442
   2   C   :   -0.000506998   -0.001491028    0.000358034
   3   H   :   -0.000750198    0.000411659    0.000451394
   4   H   :   -0.000883112    0.000373145    0.000127399
   5   N   :   -0.000045518   -0.000656577    0.000089758
   6   C   :    0.000145203    0.001824708   -0.000230113
   7   H   :    0.000113831    0.000357200    0.000461416
   8   H   :   -0.000305014    0.000248445   -0.000455401
   9   C   :    0.000542542   -0.000701844   -0.000047988
  10   H   :   -0.000538257   -0.000171590   -0.000411754
  11   H   :   -0.000387526    0.000020460    0.000685080
  12   C   :    0.000039454    0.000072158   -0.000040597
  13   H   :    0.000516596    0.000541506    0.000264016
  14   H   :   -0.000118152    0.000502153   -0.000919736
  15   C   :    0.000437862    0.000248993   -0.000149047
  16   H   :    0.000027332   -0.000399789   -0.000081622
  17   N   :    0.001059230   -0.000063987    0.000239419
  18   O   :    0.000666557   -0.000389760    0.000461078
  19   H   :   -0.000391029   -0.000198972    0.000869307
  20   H   :   -0.000866058   -0.000325620   -0.000298896
  21   H   :    0.000700168   -0.000928567   -0.001199447
  22   O   :    0.000846945    0.000098468    0.000733142
  23   H   :    0.000219036   -0.000066493   -0.000151177
  24   H   :   -0.000192407   -0.000500539   -0.000749820

Difference to translation invariance:
           :    0.0000000000   -0.0000000000    0.0000000000

Difference to rotation invariance:
           :    0.0000000000    0.0000000000   -0.0000000000

Norm of the Dispersion gradient    ...    0.0048515291
RMS gradient                       ...    0.0005717582
MAX gradient                       ...    0.0018247076

------------------
CARTESIAN GRADIENT
------------------

   1   C   :   -0.001601848   -0.006649236    0.001328081
   2   C   :    0.000873706    0.008742220   -0.000931742
   3   H   :   -0.000045362   -0.003512841    0.002547164
   4   H   :   -0.001493509   -0.003886854   -0.001105608
   5   N   :    0.012712145    0.002136354   -0.005398259
   6   C   :   -0.001210239   -0.006973719    0.000738795
   7   H   :    0.002150912   -0.004397364    0.004396876
   8   H   :   -0.001498051   -0.005082255   -0.003566042
   9   C   :   -0.001716470    0.002779036   -0.000477622
  10   H   :   -0.001128282    0.004390708   -0.004599459
  11   H   :    0.001785180    0.005899633    0.003851507
  12   C   :   -0.000406018   -0.001997460    0.002821865
  13   H   :    0.001112445   -0.003359315    0.004989948
  14   H   :   -0.000898142   -0.004582721   -0.003411199
  15   C   :   -0.002261380   -0.005771832    0.006832525
  16   H   :    0.000512126    0.006490817   -0.000158540
  17   N   :    0.004599843   -0.003855071    0.010397815
  18   O   :   -0.006025294   -0.026637586   -0.010681782
  19   H   :    0.000031155    0.005560862    0.003155979
  20   H   :   -0.002650271    0.004812747   -0.003164936
  21   H   :    0.000200627    0.003274016   -0.002434514
  22   O   :    0.001850371    0.031920008   -0.004583609
  23   H   :   -0.002394062   -0.002365458    0.000686651
  24   H   :   -0.002499583    0.003065312   -0.001233895

Difference to translation invariance:
           :    0.0000000000   -0.0000000000   -0.0000000000

Difference to rotation invariance:
           :    0.0001395027   -0.0003278007    0.0001592768

Norm of the Cartesian gradient     ...    0.0546271629
RMS gradient                       ...    0.0064378729
MAX gradient                       ...    0.0319200079

-------
TIMINGS
-------

Total SCF gradient time     ....        3.943 sec

Densities                   ....       0.000 sec  (  0.0%)
One electron gradient       ....       0.163 sec  (  4.1%)
RI-J Coulomb gradient       ....       0.737 sec  ( 18.7%)
XC gradient                 ....       3.043 sec  ( 77.2%)

Maximum memory used throughout the entire SCFGRAD-calculation: 30.0 MB
------------------------------------------------------------------------------
                         ORCA GEOMETRY RELAXATION STEP
------------------------------------------------------------------------------

Reading the OPT-File                    .... done
Getting information on internals        .... done
Copying old internal coords+grads       .... done
Making the new internal coordinates     .... (2022 redundants) done
Validating the new internal coordinates .... (2022 redundants) done
Calculating the B-matrix                .... done
Calculating the G,G- and P matrices     .... done
Transforming gradient to internals      .... done
Projecting the internal gradient        .... done
Number of atoms                         ....  24
Number of internal coordinates          .... 104
Current Energy                          ....  -496.713379055 Eh
Current gradient norm                   ....     0.054627163 Eh/bohr
Maximum allowed component of the step   ....  0.300
Current trust radius                    ....  0.300
Evaluating the initial hessian          ....  (Almloef) done
Projecting the Hessian                  .... done
Forming the augmented Hessian           .... done
Diagonalizing the augmented Hessian     .... done
Last element of RFO vector              ....  0.986463733
Lowest eigenvalues of augmented Hessian:
 -0.005536191  0.010539224  0.010724956  0.010858915  0.011338831
Length of the computed step             ....  0.166229710
The final length of the internal step   ....  0.166229710
Converting the step to Cartesian space:
 Initial RMS(Int)=    0.0163001642
Transforming coordinates:
 Iter   0:  RMS(Cart)=    0.0489297543 RMS(Int)=    0.8706191869
done
Storing new coordinates                 .... done

                                .--------------------.
          ----------------------|Geometry convergence|-------------------------
          Item                value                   Tolerance       Converged
          ---------------------------------------------------------------------
          RMS gradient        0.0051892524            0.0001000000      NO
          MAX gradient        0.0322597729            0.0003000000      NO
          RMS step            0.0163001642            0.0020000000      NO
          MAX step            0.0505036956            0.0040000000      NO
          -------------------------------------------------------------------------
          ........................................................
          Max(Bonds)      0.0173      Max(Angles)    1.59
          Max(Dihed)        2.89      Max(Improp)    0.00
          ---------------------------------------------------------------------

The optimization has not yet converged - more geometry cycles are needed


    ---------------------------------------------------------------------------
                         Redundant Internal Coordinates
                            (Angstroem and degrees)

        Definition                    Value    dE/dq     Step     New-Value
    ----------------------------------------------------------------------------
     1. B(C   1,C   0)                1.5356 -0.005673  0.0081    1.5436   
     2. B(N   4,H   2)                1.0150 -0.003789  0.0047    1.0196   
     3. B(N   4,C   0)                1.4512 -0.012722  0.0149    1.4661   
     4. B(N   4,H   3)                1.0150 -0.003780  0.0046    1.0197   
     5. B(C   5,C   1)                1.5259 -0.008425  0.0116    1.5375   
     6. B(H   6,C   1)                1.0937 -0.006418  0.0094    1.1031   
     7. B(H   7,C   1)                1.0941 -0.006268  0.0092    1.1033   
     8. B(C   8,C   5)                1.5278 -0.007716  0.0107    1.5385   
     9. B(H   9,C   5)                1.0929 -0.006278  0.0092    1.1020   
    10. B(H  10,C   5)                1.0911 -0.007096  0.0103    1.1014   
    11. B(C  11,C   8)                1.5392 -0.007790  0.0112    1.5505   
    12. B(H  12,C   8)                1.0906 -0.006047  0.0088    1.0993   
    13. B(H  13,C   8)                1.0914 -0.005706  0.0083    1.0997   
    14. B(C  14,C  11)                1.5246 -0.011741  0.0161    1.5406   
    15. B(N  16,C  11)                1.4485 -0.007000  0.0081    1.4566   
    16. B(O  17,H  15)                0.9709 -0.003105  0.0033    0.9741   
    17. B(O  17,C  14)                1.3376 -0.022336  0.0173    1.3549   
    18. B(H  18,C   0)                1.0935 -0.005835  0.0086    1.1021   
    19. B(H  19,C   0)                1.0937 -0.005750  0.0084    1.1022   
    20. B(H  20,N  16)                1.0152 -0.003192  0.0039    1.0191   
    21. B(O  21,C  14)                1.2029 -0.032260  0.0153    1.2182   
    22. B(H  22,C  11)                1.0969 -0.003396  0.0050    1.1020   
    23. B(H  23,N  16)                1.0145 -0.003252  0.0040    1.0185   
    24. A(C   1,C   0,H  19)          109.48  0.001536   -0.35    109.14   
    25. A(C   1,C   0,N   4)          114.82 -0.004497    0.94    115.76   
    26. A(N   4,C   0,H  18)          107.47  0.000009    0.24    107.71   
    27. A(C   1,C   0,H  18)          109.47  0.001918   -0.37    109.10   
    28. A(H  18,C   0,H  19)          107.90  0.001403   -0.82    107.07   
    29. A(N   4,C   0,H  19)          107.47 -0.000109    0.28    107.75   
    30. A(C   5,C   1,H   6)          109.31  0.000376    0.06    109.37   
    31. A(C   5,C   1,H   7)          109.49 -0.000368   -0.01    109.48   
    32. A(C   0,C   1,H   6)          109.16  0.001719   -0.21    108.95   
    33. A(C   0,C   1,C   5)          111.97 -0.004069    0.78    112.75   
    34. A(H   6,C   1,H   7)          107.70  0.001221   -0.53    107.17   
    35. A(C   0,C   1,H   7)          109.12  0.001327   -0.14    108.97   
    36. A(C   0,N   4,H   3)          110.19  0.000632   -0.31    109.88   
    37. A(C   0,N   4,H   2)          110.16  0.000673   -0.32    109.84   
    38. A(H   2,N   4,H   3)          107.50  0.001446   -0.74    106.76   
    39. A(C   8,C   5,H  10)          109.63  0.000056   -0.12    109.51   
    40. A(C   1,C   5,H  10)          108.90  0.001006   -0.09    108.81   
    41. A(C   8,C   5,H   9)          109.87  0.000555    0.04    109.91   
    42. A(C   1,C   5,H   9)          109.16  0.001221   -0.06    109.10   
    43. A(C   1,C   5,C   8)          111.36 -0.003951    0.79    112.14   
    44. A(H   9,C   5,H  10)          107.86  0.001286   -0.60    107.25   
    45. A(H  12,C   8,H  13)          108.62  0.000857   -0.31    108.31   
    46. A(C  11,C   8,H  12)          107.59  0.001320   -0.35    107.25   
    47. A(C  11,C   8,H  13)          108.13 -0.000864    0.21    108.34   
    48. A(C   5,C   8,H  13)          109.55  0.001068    0.03    109.58   
    49. A(C   5,C   8,H  12)          109.44  0.001069   -0.21    109.23   
    50. A(C   5,C   8,C  11)          113.40 -0.003322    0.59    113.99   
    51. A(C  14,C  11,N  16)          112.62 -0.001353    0.48    113.11   
    52. A(C   8,C  11,N  16)          111.07  0.002144   -0.27    110.81   
[...]
      dyz     :     0.008540
      dx2y2   :     0.004404
      dxy     :     0.005617

 18 H s       :     0.882191  s :     0.882191
      pz      :     0.004302  p :     0.010652
      px      :     0.002327
      py      :     0.004023

 19 H s       :     0.882708  s :     0.882708
      pz      :     0.004793  p :     0.010653
      px      :     0.002318
      py      :     0.003541

 20 H s       :     0.726447  s :     0.726447
      pz      :     0.007244  p :     0.023770
      px      :     0.008197
      py      :     0.008330

 21 O s       :     3.873996  s :     3.873996
      pz      :     1.662207  p :     4.525397
      px      :     1.503017
      py      :     1.360173
      dz2     :     0.003087  d :     0.027323
      dxz     :     0.000869
      dyz     :     0.007496
      dx2y2   :     0.007275
      dxy     :     0.008594

 22 H s       :     0.862531  s :     0.862531
      pz      :     0.002536  p :     0.010869
      px      :     0.004629
      py      :     0.003704

 23 H s       :     0.734267  s :     0.734267
      pz      :     0.007579  p :     0.023615
      px      :     0.009483
      py      :     0.006554



                     *******************************
                     * LOEWDIN POPULATION ANALYSIS *
                     *******************************

----------------------
LOEWDIN ATOMIC CHARGES
----------------------
   0 C :   -0.073758
   1 C :   -0.143816
   2 H :    0.121041
   3 H :    0.120773
   4 N :   -0.274126
   5 C :   -0.132050
   6 H :    0.061735
   7 H :    0.060277
   8 C :   -0.115698
   9 H :    0.068598
  10 H :    0.069803
  11 C :   -0.050455
  12 H :    0.076860
  13 H :    0.072616
  14 C :    0.123546
  15 H :    0.182950
  16 N :   -0.252252
  17 O :   -0.160132
  18 H :    0.066399
  19 H :    0.066156
  20 H :    0.128674
  21 O :   -0.231293
  22 H :    0.085236
  23 H :    0.128917

-------------------------------
LOEWDIN REDUCED ORBITAL CHARGES
-------------------------------
  0 C s       :     2.900576  s :     2.900576
      pz      :     1.076217  p :     3.063364
      px      :     0.971448
      py      :     1.015698
      dz2     :     0.011377  d :     0.109818
      dxz     :     0.019125
      dyz     :     0.025075
      dx2y2   :     0.024114
      dxy     :     0.030128

  1 C s       :     2.920048  s :     2.920048
      pz      :     1.067474  p :     3.144072
      px      :     1.024692
      py      :     1.051905
      dz2     :     0.009386  d :     0.079697
      dxz     :     0.013307
      dyz     :     0.023582
      dx2y2   :     0.011831
      dxy     :     0.021591

  2 H s       :     0.802288  s :     0.802288
      pz      :     0.031270  p :     0.076670
      px      :     0.021552
      py      :     0.023849

  3 H s       :     0.802571  s :     0.802571
      pz      :     0.028753  p :     0.076656
      px      :     0.020525
      py      :     0.027377

  4 N s       :     3.225774  s :     3.225774
      pz      :     1.218366  p :     3.991239
      px      :     1.466025
      py      :     1.306848
      dz2     :     0.005594  d :     0.057113
      dxz     :     0.008371
      dyz     :     0.022127
      dx2y2   :     0.009558
      dxy     :     0.011463

  5 C s       :     2.904868  s :     2.904868
      pz      :     1.072161  p :     3.147431
      px      :     1.019813
      py      :     1.055456
      dz2     :     0.009337  d :     0.079752
      dxz     :     0.013646
      dyz     :     0.023009
      dx2y2   :     0.012055
      dxy     :     0.021706

  6 H s       :     0.900516  s :     0.900516
      pz      :     0.017778  p :     0.037749
      px      :     0.007765
      py      :     0.012206

  7 H s       :     0.902068  s :     0.902068
      pz      :     0.015072  p :     0.037655
      px      :     0.008268
      py      :     0.014315

  8 C s       :     2.912355  s :     2.912355
      pz      :     1.077086  p :     3.124568
      px      :     1.005882
      py      :     1.041600
      dz2     :     0.010475  d :     0.078775
      dxz     :     0.013566
      dyz     :     0.020542
      dx2y2   :     0.011721
      dxy     :     0.022470

  9 H s       :     0.892794  s :     0.892794
      pz      :     0.018282  p :     0.038608
      px      :     0.007965
      py      :     0.012361

 10 H s       :     0.891529  s :     0.891529
      pz      :     0.015694  p :     0.038668
      px      :     0.008672
      py      :     0.014302

 11 C s       :     2.891506  s :     2.891506
      pz      :     0.979442  p :     3.033604
      px      :     1.051599
      py      :     1.002563
      dz2     :     0.028846  d :     0.125345
      dxz     :     0.023693
      dyz     :     0.033304
      dx2y2   :     0.012966
      dxy     :     0.026534

 12 H s       :     0.884368  s :     0.884368
      pz      :     0.019753  p :     0.038772
      px      :     0.007962
      py      :     0.011058

 13 H s       :     0.888553  s :     0.888553
      pz      :     0.015331  p :     0.038832
      px      :     0.008147
      py      :     0.015354

 14 C s       :     2.876584  s :     2.876584
      pz      :     0.931866  p :     2.722572
      px      :     0.812699
      py      :     0.978007
      dz2     :     0.039792  d :     0.277298
      dxz     :     0.019339
      dyz     :     0.099381
      dx2y2   :     0.050641
      dxy     :     0.068145

 15 H s       :     0.703045  s :     0.703045
      pz      :     0.052107  p :     0.114006
      px      :     0.027520
      py      :     0.034379

 16 N s       :     3.218732  s :     3.218732
      pz      :     1.452321  p :     3.976165
      px      :     1.280409
      py      :     1.243434
      dz2     :     0.009036  d :     0.057355
      dxz     :     0.008360
      dyz     :     0.016013
      dx2y2   :     0.005617
      dxy     :     0.018330

 17 O s       :     3.497630  s :     3.497630
      pz      :     1.366211  p :     4.613958
      px      :     1.631365
      py      :     1.616383
      dz2     :     0.007690  d :     0.048544
      dxz     :     0.007088
      dyz     :     0.017464
      dx2y2   :     0.006433
      dxy     :     0.009868

 18 H s       :     0.896625  s :     0.896625
      pz      :     0.015248  p :     0.036975
      px      :     0.007222
      py      :     0.014505

 19 H s       :     0.896882  s :     0.896882
      pz      :     0.018066  p :     0.036961
      px      :     0.006612
      py      :     0.012283

 20 H s       :     0.792696  s :     0.792696
      pz      :     0.023495  p :     0.078630
      px      :     0.025714
      py      :     0.029421

 21 O s       :     3.568890  s :     3.568890
      pz      :     1.658772  p :     4.606743
      px      :     1.489374
      py      :     1.458596
      dz2     :     0.006921  d :     0.055660
      dxz     :     0.001227
      dyz     :     0.015431
      dx2y2   :     0.018685
      dxy     :     0.013395

 22 H s       :     0.875833  s :     0.875833
      pz      :     0.008479  p :     0.038931
      px      :     0.016559
      py      :     0.013893

 23 H s       :     0.793962  s :     0.793962
      pz      :     0.022052  p :     0.077121
      px      :     0.034528
      py      :     0.020541



                      *****************************
                      * MAYER POPULATION ANALYSIS *
                      *****************************

  NA   - Mulliken gross atomic population
  ZA   - Total nuclear charge
  QA   - Mulliken gross atomic charge
  VA   - Mayer's total valence
  BVA  - Mayer's bonded valence
  FA   - Mayer's free valence

  ATOM       NA         ZA         QA         VA         BVA        FA
  0 C      6.0870     6.0000    -0.0870     3.9000     3.9000    -0.0000
  1 C      6.1967     6.0000    -0.1967     3.8731     3.8731     0.0000
  2 H      0.7693     1.0000     0.2307     0.9224     0.9224    -0.0000
  3 H      0.7698     1.0000     0.2302     0.9225     0.9225    -0.0000
  4 N      7.5693     7.0000    -0.5693     2.8848     2.8848    -0.0000
  5 C      6.2082     6.0000    -0.2082     3.8837     3.8837     0.0000
  6 H      0.9083     1.0000     0.0917     0.9577     0.9577     0.0000
  7 H      0.9112     1.0000     0.0888     0.9579     0.9579     0.0000
  8 C      6.1780     6.0000    -0.1780     3.8626     3.8626    -0.0000
  9 H      0.8919     1.0000     0.1081     0.9586     0.9586     0.0000
 10 H      0.8909     1.0000     0.1091     0.9556     0.9556     0.0000
 11 C      6.0562     6.0000    -0.0562     3.8653     3.8653    -0.0000
 12 H      0.8823     1.0000     0.1177     0.9555     0.9555    -0.0000
 13 H      0.8884     1.0000     0.1116     0.9564     0.9564    -0.0000
 14 C      5.5011     6.0000     0.4989     3.9170     3.9170    -0.0000
 15 H      0.6814     1.0000     0.3186     0.9174     0.9174    -0.0000
 16 N      7.5524     7.0000    -0.5524     2.8980     2.8980     0.0000
 17 O      8.4631     8.0000    -0.4631     2.0262     2.0262    -0.0000
 18 H      0.8928     1.0000     0.1072     0.9512     0.9512    -0.0000
 19 H      0.8934     1.0000     0.1066     0.9511     0.9511     0.0000
 20 H      0.7502     1.0000     0.2498     0.9283     0.9283     0.0000
 21 O      8.4267     8.0000    -0.4267     2.1001     2.1001     0.0000
 22 H      0.8734     1.0000     0.1266     0.9489     0.9489    -0.0000
 23 H      0.7579     1.0000     0.2421     0.9190     0.9190    -0.0000

  Mayer bond orders larger than 0.100000
B(  0-C ,  1-C ) :   0.9793 B(  0-C ,  4-N ) :   1.0231 B(  0-C , 18-H ) :   0.9496 
B(  0-C , 19-H ) :   0.9499 B(  1-C ,  5-C ) :   0.9896 B(  1-C ,  6-H ) :   0.9473 
B(  1-C ,  7-H ) :   0.9476 B(  2-H ,  4-N ) :   0.9137 B(  3-H ,  4-N ) :   0.9139 
B(  5-C ,  8-C ) :   0.9986 B(  5-C ,  9-H ) :   0.9408 B(  5-C , 10-H ) :   0.9414 
B(  8-C , 11-C ) :   0.9645 B(  8-C , 12-H ) :   0.9401 B(  8-C , 13-H ) :   0.9400 
B( 11-C , 14-C ) :   0.8981 B( 11-C , 16-N ) :   1.0516 B( 11-C , 22-H ) :   0.9249 
B( 14-C , 17-O ) :   1.0671 B( 14-C , 21-O ) :   1.8949 B( 15-H , 17-O ) :   0.8521 
B( 16-N , 20-H ) :   0.8921 B( 16-N , 23-H ) :   0.9077 

-------
TIMINGS
-------

Total SCF time: 0 days 0 hours 0 min 3 sec 

Total time                  ....       3.759 sec
Sum of individual times     ....       3.231 sec  ( 86.0%)

SCF preparation             ....       0.035 sec  (  0.9%)
Fock matrix formation       ....       3.143 sec  ( 83.6%)
  Startup                   ....       0.001 sec  (  0.0% of F)
  Split-RI-J                ....       1.233 sec  ( 39.2% of F)
  XC integration            ....       2.361 sec  ( 75.1% of F)
    XC Preparation          ....       0.000 sec  (  0.0% of XC)
    Basis function eval.    ....       0.874 sec  ( 37.0% of XC)
    Density eval.           ....       0.529 sec  ( 22.4% of XC)
    XC-Functional eval.     ....       0.452 sec  ( 19.2% of XC)
    XC-Potential eval.      ....       0.442 sec  ( 18.7% of XC)
Diagonalization             ....       0.000 sec  (  0.0%)
Density matrix formation    ....       0.002 sec  (  0.1%)
Total Energy calculation    ....       0.001 sec  (  0.0%)
Population analysis         ....       0.019 sec  (  0.5%)
Orbital Transformation      ....       0.010 sec  (  0.3%)
Orbital Orthonormalization  ....       0.000 sec  (  0.0%)
DIIS solution               ....       0.005 sec  (  0.1%)
SOSCF solution              ....       0.017 sec  (  0.5%)
Finished LeanSCF after   3.8 sec

Maximum memory used throughout the entire LEANSCF-calculation: 23.6 MB



-------------------------------------------------------------------------------
                          DFT DISPERSION CORRECTION                            
-------------------------------------------------------------------------------
Active option DFTDOPT                   ...         2   
Final C6-coefficient scaling factor     ...     1.250
Final VDW-radii scaling factor          ...     1.100
Damping factor alpha                    ...    20.000
-------------------------   ----------------
Dispersion correction           -0.034199956
-------------------------   ----------------


-------------------------   --------------------
FINAL SINGLE POINT ENERGY      -496.717385834495
-------------------------   --------------------

                                *** OPTIMIZATION RUN DONE ***


------------------------------------------------------------------------------
                              ORCA PROPERTY CALCULATIONS
------------------------------------------------------------------------------

GBWName                                 ... 5.gbw
Number of atoms                         ...     24
Number of basis functions               ...    210
Max core memory                         ...   4096 MB

Electric properties:
Dipole moment                           ... YES
Quadrupole moment                       ...  NO
Static polarizability (Dipole/Dipole)   ...  NO
Static polarizability (Dipole/Quad.)    ...  NO
Static polarizability (Quad./Quad.)     ...  NO
Static polarizability (Velocity)        ...  NO
Static hyperpolarizability              ...  NO

Atomic electric properties:
Dipole moment                           ...  NO
Quadrupole moment                       ...  NO
Static polarizability                   ...  NO

Choice of electric origin               ... Center of mass
Position of electric origin             ...   -20.295558    10.868039     1.247435

General magnetic properties:
Magnetizability                         ...  NO

EPR properties:
g-Tensor (aka g-matrix)                 ...  NO
Zero-Field splitting spin-orbit         ...  NO
Zero-field splitting spin-spin          ...  NO
Hyperfine couplings                     ...  NO (   0 nuclei)
Quadrupole couplings                    ...  NO (   0 nuclei)
Contact density                         ...  NO (   0 nuclei)

NMR properties:
Chemical shifts                         ...  NO (   0 nuclei)
Spin-rotation constants                 ...  NO (   0 nuclei)
Spin-spin couplings                     ...  NO (   0 nuclei,    0 pairs)

Choice of magnetic origin               ... GIAO
Position of magnetic origin             ...     0.000000     0.000000     0.000000

Properties with geometric perturbations:
SCF Hessian                             ...  NO
IR spectrum                             ...  NO
VCD spectrum                            ...  NO
X-ray spectroscopy properties:
SCF XES/XAS/RIXS spectra                ...  NO

SCF SOC stabilization energy            ...  NO
Diagonal Born-Oppenheimer correction    ...  NO

-------------
DIPOLE MOMENT
-------------

Method             : SCF
Type of density    : Electron Density
Multiplicity       :   1
Irrep              :   0
Energy             :  -496.6831858785244549 Eh
Basis              : AO
                                X                 Y                 Z
Electronic contribution:     11.488255478      -4.247855797       1.515644752
Nuclear contribution   :    -10.824531046       4.880453797      -1.370795538
                        -----------------------------------------
Total Dipole Moment    :      0.663724431       0.632598000       0.144849214
                        -----------------------------------------
Magnitude (a.u.)       :      0.928273475
Magnitude (Debye)      :      2.359483663



--------------------
Rotational spectrum 
--------------------
 
Rotational constants in cm-1:             0.077426             0.016981             0.016108 
Rotational constants in MHz :          2321.174407           509.086558           482.910616 

Dipole components along the rotational axes: 
x,y,z [a.u.] :     0.445825     0.309387     0.753134 
x,y,z [Debye]:     1.133198     0.786398     1.914316 

 

Dipole moment calculation done in   0.0 sec 

Maximum memory used throughout the entire PROP-calculation: 13.3 MB

--------------------------------
SUGGESTED CITATIONS FOR THIS RUN
--------------------------------

Below you find a list of papers that are relevant to this ORCA run
We neither can nor want to force you to cite these papers, but we appreciate if you do
You receive ORCA, which is the product of decades of hard work by many enthusiastic individuals, for free
The only thing we kindly ask in return is that you cite our papers,
We deeply appreciate it, if you show your appreciation for ORCA by not just citing the generic ORCA reference.

Please note that relegating all ORCA citations to the supporting information does *not* help us.
SI sections are not indexed - citations you put there will not count into any citation statistics
But we need these citations in order to attract the funding resources that allow us to do what we are doing

Therefore, if you are a happy ORCA user, please consider citing a few of the papers listed below in the main body of your paper

In addition to the list printed below, the program has created the file 5.bibtex that contains the list in bibtex format
You can import this file easily into all common literature databanks and citation aid programs


List of essential papers. We consider these as the minimum necessary citations

  1. Neese, F.
     Software update: the ORCA program system, version 6.0
     WIRES Comput. Molec. Sci. 2025 15(1), e70019
     doi.org/10.1002/wcms.7019

List of papers to cite with high priority. The work reported in these papers was absolutely
necessary for this run to complete.
Our perspective: the developers of density functionals and basis sets usually get cited in chemistry papers
Good! But without the algorithms to do something with them, the functionals or basis sets would not do anything.
Hence, in our opinion, the algorithm design and method developments papers are equally worthy of getting cited

  1. Neese, F.
     An improvement of the resolution of the identity approximation for the formation of the Coulomb matrix
     J. Comp. Chem. 2003 24(14), 1740-1747
     doi.org/10.1002/jcc.10318
  2. Grimme, S.
     Semiempirical GGA-type density functional constructed with a long-range dispersion correction
     J.Comput.Chem. 2006 27(15), 1787-1799
     doi.org/10.1002/jcc.20495
  3. Neese, F.
     The SHARK Integral Generation and Digestion System
     J. Comp. Chem. 2022 44(3), 381
     doi.org/10.1002/jcc.26942

List of suggested additional citations. These are papers that are important in the 'surrounding' of 
of this run, or papers that preceded the highly important papers. If you like your results we are grateful for a citation.

  1. Neese, F.
     The ORCA program system
     WIRES Comput. Molec. Sci. 2012 2(1), 73-78
     doi.org/10.1002/wcms.81
  2. Neese, F.
     Software update: the ORCA program system, version 4.0
     WIRES Comput. Molec. Sci. 2018 8(1), 1-6
     doi.org/10.1002/wcms.1327
  3. Neese, F.; Wennmohs, F.; Becker, U.; Riplinger, C.
     The ORCA quantum chemistry program package
     J. Chem. Phys. 2020 152(22), 224108
     doi.org/10.1063/5.0004608
  4. Neese, F.
     Software update: The ORCA program system—Version 5.0
     WIRES Comput. Molec. Sci. 2022 12(1), e1606
     doi.org/10.1002/wcms.1606

List of optional additional citations

  1. Neese, F.
     Approximate second-order SCF convergence for spin unrestricted wavefunctions
     Chem. Phys. Lett. 2000 325(1-3), 93-98
     doi.org/10.1016/s0009-2614(00)00662-x

Timings for individual modules:

Sum of individual times          ...      105.918 sec (=   1.765 min)
Startup calculation              ...        5.737 sec (=   0.096 min)   5.4 %
SCF iterations                   ...       60.903 sec (=   1.015 min)  57.5 %
Property calculations            ...        0.039 sec (=   0.001 min)   0.0 %
SCF Gradient evaluation          ...       39.218 sec (=   0.654 min)  37.0 %
Geometry relaxation              ...        0.021 sec (=   0.000 min)   0.0 %
                             ****ORCA TERMINATED NORMALLY****
TOTAL RUN TIME: 0 days 0 hours 1 minutes 46 seconds 197 msec
