
                                 *****************
                                 * O   R   C   A *
                                 *****************

                                            #,                                       
                                            ###                                      
                                            ####                                     
                                            #####                                    
                                            ######                                   
                                           ########,                                 
                                     ,,################,,,,,                         
                               ,,#################################,,                 
                          ,,##########################################,,             
                       ,#########################################, ''#####,          
                    ,#############################################,,   '####,        
                  ,##################################################,,,,####,       
                ,###########''''           ''''###############################       
              ,#####''   ,,,,##########,,,,          '''####'''          '####       
            ,##' ,,,,###########################,,,                        '##       
           ' ,,###''''                  '''############,,,                           
         ,,##''                                '''############,,,,        ,,,,,,###''
      ,#''                                            '''#######################'''  
     '                                                          ''''####''''         
             ,#######,   #######,   ,#######,      ##                                
            ,#'     '#,  ##    ##  ,#'     '#,    #''#        ,####,    ,#,          
            ##       ##  ##   ,#'  ##            #'  '#       #'       ,# #          
            ##       ##  #######   ##           ,######,      #####,      #          
            '#,     ,#'  ##    ##  '#,     ,#' ,#      #,     #,   #      #          
             '#######'   ##     ##  '#######'  #'      '#     '####' #    #          



                #########################################################
                #                        -***-                          #
                #          Department of theory and spectroscopy        #
                #                                                       #
                #                      Frank Neese                      #
                #                                                       #
                #     Directorship, Architecture, Infrastructure        #
                #                    SHARK, DRIVERS                     #
                #        Core code/Algorithms in most modules           #
                #                                                       #
                #        Max Planck Institute fuer Kohlenforschung      #
                #                Kaiser Wilhelm Platz 1                 #
                #                 D-45470 Muelheim/Ruhr                 #
                #                      Germany                          #
                #                                                       #
                #                  All rights reserved                  #
                #                        -***-                          #
                #########################################################


                         Program Version 6.1.0  -  RELEASE   -
                                (GIT: $679e74b$)
                          ($2025-06-10 18:02:51 +0200$)


 With contributions from (in alphabetic order):
[Max-Planck-Institut fuer Kohlenforschung]                               
  Daniel Aravena         : Magnetic Suceptibility                        
  Michael Atanasov       : Ab Initio Ligand Field Theory (pilot matlab implementation)
  Alexander A. Auer      : GIAO ZORA, VPT2 properties, NMR spectrum      
  Ute Becker             : All parallelization in ORCA, NUMFREQ, NUMCALC 
  Giovanni Bistoni       : ED, misc. LED, open-shell LED, HFLD           
  Dmytro Bykov           : pre 5.0 version of the SCF Hessian            
  Marcos Casanova-Páez   : Triplet and SCS-CIS(D). UHF-(DLPNO)-IP/EA/STEOM-CCSD. UHF-CVS-IP/STEOM-CCSD   
  Vijay G. Chilkuri      : MRCI spin determinant printing, contributions to CSF-ICE 
  Pauline Colinet        : FMM embedding                                 
  Dipayan Datta          : RHF DLPNO-CCSD density                        
  Achintya Kumar Dutta   : EOM-CC, STEOM-CC                              
  Nicolas Foglia         : Exact transition moments, OPA infrastructure, MCD improvements    
  Dmitry Ganyushin       : Spin-Orbit,Spin-Spin,Magnetic field MRCI      
  Miquel Garcia-Rates    : C-PCM and meta-GGA Hessian, CCSD/C-PCM, Gaussian charge scheme 
  Tiago L. C. Gouveia    : GS-ROHF, GS-ROCIS                             
  Yang Guo               : DLPNO-NEVPT2, F12-NEVPT2, CIM, IAO-localization        
  Andreas Hansen         : Spin unrestricted coupled pair/coupled cluster methods 
  Ingolf Harden          : AUTO-CI MPn and infrastructure                
  Benjamin Helmich-Paris : MC-RPA, TRAH-(SCF,CASSCF), AVAS, COSX integrals, SCF dyn. polar., MC-PDFT, srDFT 
  Lee Huntington         : MR-EOM, pCC                                   
  Robert Izsak           : Overlap fitted RIJCOSX, COSX-SCS-MP3, EOM     
  Riya Kayal             : Wick's Theorem for AUTO-CI, AUTO-CI UHF-CCSDT 
  Emily Kempfer          : AUTO-CI RHF CISDT and CCSDT, approximate NEVPT4
  Christian Kollmar      : KDIIS, OOCD, Brueckner-CCSD(T), CCSD density, CASPT2, CASPT2-K, improved NEVPT2 
  Axel Koslowski         : Symmetry handling                             
  Simone Kossmann        : meta-GGA functionals, TD-DFT gradient, OOMP2, (MP2 Hessian; deprecated post 5.0) 
  Lucas Lang             : DCDCAS, Hyperfine gauge corrections, ICE-SOC+SSC
  Marvin Lechner         : AUTO-CI (C++ implementation), FIC-MRCC        
  Spencer Leger          : CASSCF response                               
  Dagmar Lenk            : GEPOL surface, SMD, ORCA-2-JSON               
  Dimitrios Liakos       : Extrapolation schemes; Compound Job, Property file
  Dimitrios Manganas     : Further ROCIS development; embedding schemes. LFT, Crystal Embedding 
  Dimitrios Pantazis     : SARC Basis sets                               
  Anastasios Papadopoulos: AUTO-CI, single reference methods and gradients 
  Taras Petrenko         : pre 6.0 DFT Hessian and TD-DFT gradient,  ECA, NRVS 
  Petra Pikulova         : Analytic Raman intensities                    
  Peter Pinski           : DLPNO-MP2, DLPNO-MP2 Gradient                 
  Shashank Vittal Rao    : ES-AILFT, MagRelax                            
  Christoph Reimann      : Effective Core Potentials                     
  Marius Retegan         : Local ZFS, SOC                                
  Christoph Riplinger    : Optimizer, TS searches, QM/MM, DLPNO-CCSD(T), (RO)-DLPNO pert. Triples 
  Michael Roemelt        : Original ROCIS implementation, recursive CI coupling coefficients
  Masaaki Saitow         : Open-shell DLPNO-CCSD energy and density      
  Barbara Sandhoefer     : DKH picture change effects                    
  Yorick L. A. Schmerwitz: GMF and freeze-and-release deltaSCF, NEB S-IDPP initial path                    
  Kantharuban Sivalingam : CASSCF convergence/infrastructure, NEVPT2, NEVPT3, NEVPT4(SD), FIC-MRCI and CEPA variants
  Bernardo de Souza      : ESD, SOC TD-DFT                               
  Georgi L. Stoychev     : AutoAux, RI-MP2 NMR, DLPNO-MP2 response, X2C  
  Van Anh Tran           : RI-MP2 g-tensors                              
  Willem Van den Heuvel  : Paramagnetic NMR                              
  Zikuan Wang            : NOTCH, Electric field optimization            
  Frank Wennmohs         : Technical directorship and infrastructure     
  Hang Xu                : AUTO-CI-Response properties                   
                                                                         
[FACCTs GmbH]                                                            
  Markus Bursch, Nicolas Foglia, Miquel Garcia-Rates, Ingolf Harden, Hagen Neugebauer, Anastasios Papadopoulos, 
  Christoph Riplinger, Bernardo de Souza, Georgi L. Stoychev                                                    
                                                                 
  APM, various basis sets, CI-OPT, improved COSX, DLPNO-Multilevel,           
  DOCKER, DRACO, updates on ESD, Fragmentator, GOAT, IRC, LR-CPCM, L-BFGS, MBIS, meta-GGA TD-DFT gradient, ML-optimized integration grids, 
  MM, NACMEs, nearIR, NEB, NEB-TS, NL-DFT gradient (VV10), 2- and 3-layer-ONIOM, interface openCOSMO-RS, QMMM,   
  Crystal-QMMM, RESP, rigid body optimization, SF, symmetry and pop. for TD-DFT, various functionals, SOLVATOR                                   
                                                                         
[Other institutions]                                                     
  V. Asgeirsson          : NEB                                           
  Christoph Bannwarth    : sTDA-DFT, sTD-DFT, PBEh-3c, B97-3c, D3        
  Giovanni Bistoni       : ETS/NOCV, ADLD/ADEX, COVALED                  
  Martin Brehm           : Molecular dynamics                            
  Ronald Cardenas        : ETS/NOCV                                      
  Martina Colucci        : COVALED                                       
  Sebastian Ehlert       : rSCAN, r2SCAN, r2SCAN-3c, D4, dhf basis sets  
  Marvin Friede          : D4 for Fr, Ra, Ac-Lr                          
  Lars Goerigk           : TD-DFT with DH, B97 family of functionals     
  Stefan Grimme          : VdW corrections, initial TS optimization, DFT functionals, gCP, sTDA/sTD-DF 
  Waldemar Hujo          : DFT-NL                                        
  H. Jonsson             : NEB                                           
  Holger Kruse           : gCP                                           
  Marcel Mueller         : wB97X-3c, vDZP basis set                      
  Hagen Neugebauer       : wr2SCAN, Native XTB                           
  Gianluca Regni         : ADLD/ADEX                                     
  Tobias Risthaus        : pre 6.0 range-separated hybrid DFT and stability analysis
  Lukas Wittmann         : regularized MP2, r2SCAN double-hybrids, wr2SCAN        
                                                                         
We gratefully acknowledge several colleagues who have allowed us to      
interface, adapt or use parts of their codes:                            
  Ed Valeev, F. Pavosevic, A. Kumar             : LibInt (2-el integral package), F12 methods 
  Garnet Chan, S. Sharma, J. Yang, R. Olivares  : DMRG                   
  Ulf Ekstrom                                   : XCFun DFT Library      
  Mihaly Kallay                                 : mrcc  (arbitrary order and MRCC methods)
  Frank Weinhold                                : gennbo (NPA and NBO analysis)           
  Simon Mueller                                 : openCOSMO-RS                            
  Christopher J. Cramer and Donald G. Truhlar   : smd solvation model                     
  S Lehtola, MJT Oliveira, MAL Marques          : LibXC Library                           
  Liviu Ungur et al                             : ANISO software                          


 Your calculation uses the libint2 library for the computation of 2-el integrals
 For citations please refer to: http://libint.valeyev.net

 Your ORCA version has been built with support for libXC version: 7.0.0
 For citations please refer to: https://libxc.gitlab.io

 This ORCA versions uses:
   CBLAS   interface :  Fast vector & matrix operations
   LAPACKE interface :  Fast linear algebra routines
   SCALAPACK package :  Parallel linear algebra routines
   Shared memory     :  Shared parallel matrices
   BLAS/LAPACK       :  OpenBLAS 0.3.29  USE64BITINT DYNAMIC_ARCH NO_AFFINITY Haswell SINGLE_THREADED
        Core in use  :  Haswell
   Copyright (c) 2011-2014, The OpenBLAS Project


  ***********************************
  * Starting time: Sat Aug 30 16:32:15 2025
  * Host name:     chemlab03
  * Process ID:    83241
  * Working dir.:  /home/vivek/mm-project/vivek/xtb-goat/B97-D-opt/l/3
  ***********************************



***************************************
The coordinates will be read from file: /home/vivek/mm-project/vivek/xtb-goat/xtb-goat/l/L_CONF/3.xyz
***************************************


Your calculation utilizes empirical dispersion correction


Warning: RI is on but no J-basis has been assigned. Assigning Def2/J (nothing to worry about!)
================================================================================

----- Orbital basis set information -----
Your calculation utilizes the basis: 6-31G**
   H-He, Li-Ne : W. J. Hehre, R. Ditchfield and J.A. Pople, J. Chem. Phys. 56, 2257 (1972).
                 Note: He and Ne are unpublished basis sets taken from the Gaussian program.
                 Note: Li and B from J. D. Dill and J. A. Pople, J. Chem. Phys. 62, 2921 (1975).
   Na - Ar     : M. M. Francl, W. J. Pietro, W. J. Hehre, J. S. Binkley, M. S. Gordon, 
                 D. J. DeFrees and J. A. Pople, J. Chem. Phys. 77, 3654 (1982).
   K - Zn      : V. A. Rassolov, J. A. Pople, M. A. Ratner, and T. L. Windus, J. Chem. Phys. 109, 1223 (1998).

----- AuxJ basis set information -----
Your calculation utilizes the auxiliary basis: def2/J
   H-Rn: F. Weigend, Phys. Chem. Chem. Phys. 8, 1057 (2006).
   Fr-Lr: K. Eichkorn, F. Weigend, O. Treutler, R. Ahlrichs; Theor. Chem. Acc. 97, 119 (1997).

================================================================================
                                        WARNINGS
                       Please study these warnings very carefully!
================================================================================


WARNING: Geometry Optimization
  ===> : Switching off AutoStart
         For restart on a previous wavefunction, please use MOREAD

INFO   : The exchange functional is Grimme's B97(-D)
         As described in S. Grimme, J. Comput. Chem. 27, 1787 (2006).
         Note that this functional defaults to a pure GGA. 

INFO   : The correlation functional is Grimme's B97(-D)
         As described in S. Grimme, J. Comput. Chem. 27, 1787 (2006).

================================================================================
                                       INPUT FILE
================================================================================
NAME = 3.inp
|  1> ! B97-D 6-31G** opt
|  2> 
|  3> * xyzfile 0 1 /home/vivek/mm-project/vivek/xtb-goat/xtb-goat/l/L_CONF/3.xyz
|  4> 
|  5>                          ****END OF INPUT****
================================================================================

                       *****************************
                       * Geometry Optimization Run *
                       *****************************

Geometry optimization settings:
Update method            Update   .... BFGS
Choice of coordinates    CoordSys .... (2022) Redundant Internals
Initial Hessian          InHess   .... Almloef's Model
Max. no of cycles        MaxIter  .... 66

Convergence Tolerances:
Energy Change            TolE     ....  5.0000e-06 Eh
Max. Gradient            TolMAXG  ....  3.0000e-04 Eh/bohr
RMS Gradient             TolRMSG  ....  1.0000e-04 Eh/bohr
Max. Displacement        TolMAXD  ....  4.0000e-03 bohr
RMS Displacement         TolRMSD  ....  2.0000e-03 bohr
Strict Convergence                .... False

------------------------------------------------------------------------------
                        ORCA OPTIMIZATION COORDINATE SETUP
------------------------------------------------------------------------------

The optimization will be done in redundant internal coordinates (2022)
Making redundant internal coordinates   ...  (2022 redundants) done
Evaluating the initial hessian          ...  (Almloef) done
Evaluating the coordinates              ...  done
Calculating the B-matrix                .... done
Calculating the G-matrix                .... done
The number of degrees of freedom        ....   94

    -----------------------------------------------------------------
                    Redundant Internal Coordinates


    -----------------------------------------------------------------
         Definition                    Initial Value    Approx d2E/dq
    -----------------------------------------------------------------
      1. B(C   1,C   0)                  1.5218         0.384945   
      2. B(C   4,C   0)                  1.5401         0.359912   
      3. B(H   5,C   0)                  1.0933         0.355801   
      4. B(N   7,H   3)                  1.0160         0.423248   
      5. B(N   7,C   0)                  1.4516         0.446257   
      6. B(N   7,H   2)                  1.0149         0.425034   
      7. B(C   8,C   4)                  1.5317         0.371184   
      8. B(H   9,C   4)                  1.0913         0.358420   
      9. B(H  10,C   4)                  1.0931         0.356018   
     10. B(C  11,C   8)                  1.5268         0.377980   
     11. B(H  12,C  11)                  1.0878         0.362987   
     12. B(C  13,C   8)                  1.5281         0.376144   
     13. B(C  13,H   6)                  1.0879         0.362936   
     14. B(H  14,C  11)                  1.0875         0.363385   
     15. B(H  15,C  11)                  1.0864         0.364838   
     16. B(H  16,C   8)                  1.0946         0.354032   
     17. B(H  17,C  13)                  1.0877         0.363154   
     18. B(H  18,C  13)                  1.0874         0.363509   
     19. B(O  19,C   1)                  1.3379         0.677605   
     20. B(H  20,O  19)                  0.9713         0.498857   
     21. B(O  21,C   1)                  1.2036         1.109775   
     22. A(C   4,C   0,N   7)          108.6314         0.369887   
     23. A(C   1,C   0,H   5)          108.7529         0.325278   
     24. A(H   5,C   0,N   7)          108.6370         0.331305   
     25. A(C   4,C   0,H   5)          110.0287         0.321709   
     26. A(C   1,C   0,N   7)          111.9261         0.374194   
     27. A(C   1,C   0,C   4)          108.8555         0.362900   
     28. A(C   0,C   1,O  21)          124.3277         0.439503   
     29. A(C   0,C   1,O  19)          113.0852         0.402471   
     30. A(O  19,C   1,O  21)          122.5869         0.484081   
     31. A(H   9,C   4,H  10)          107.7192         0.290106   
     32. A(C   0,C   4,H  10)          107.9860         0.321741   
     33. A(C   8,C   4,H   9)          109.6439         0.323729   
     34. A(C   0,C   4,H   9)          106.7667         0.322096   
     35. A(C   0,C   4,C   8)          114.8437         0.360652   
     36. A(C   8,C   4,H  10)          109.6227         0.323372   
     37. A(C   0,N   7,H   2)          110.4953         0.338315   
     38. A(H   2,N   7,H   3)          107.0057         0.301326   
     39. A(C   0,N   7,H   3)          109.1724         0.338078   
     40. A(C  13,C   8,H  16)          108.5247         0.323779   
     41. A(C   4,C   8,H  16)          109.0301         0.323075   
     42. A(C  11,C   8,H  16)          108.4784         0.324038   
     43. A(C  11,C   8,C  13)          109.8388         0.364508   
     44. A(C   4,C   8,C  13)          109.4787         0.363378   
     45. A(C   4,C   8,C  11)          111.4324         0.363681   
     46. A(H  14,C  11,H  15)          108.0044         0.291854   
     47. A(H  12,C  11,H  15)          108.5029         0.291804   
     48. A(C   8,C  11,H  15)          111.2732         0.325643   
     49. A(H  12,C  11,H  14)          108.4184         0.291621   
     50. A(C   8,C  11,H  14)          110.2095         0.325430   
     51. A(C   8,C  11,H  12)          110.3464         0.325371   
     52. A(H   6,C  13,H  18)          108.3827         0.291630   
     53. A(C   8,C  13,H  17)          110.8769         0.325135   
     54. A(H   6,C  13,H  17)          108.4031         0.291585   
     55. A(H   6,C  13,C   8)          110.3088         0.325103   
     56. A(H  17,C  13,H  18)          108.2952         0.291657   
     57. A(C   8,C  13,H  18)          110.4955         0.325187   
     58. A(C   1,O  19,H  20)          110.5547         0.373150   
     59. D(O  19,C   1,C   0,H   5)     32.7212         0.011040   
     60. D(O  21,C   1,C   0,H   5)   -147.1217         0.011040   
     61. D(O  21,C   1,C   0,C   4)     93.0008         0.011040   
     62. D(O  19,C   1,C   0,N   7)    152.7520         0.011040   
     63. D(O  19,C   1,C   0,C   4)    -87.1563         0.011040   
     64. D(C   8,C   4,C   0,C   1)     74.1265         0.010393   
     65. D(C   8,C   4,C   0,H   5)    -44.9567         0.010393   
     66. D(H   9,C   4,C   0,H   5)     76.8056         0.010393   
     67. D(H   9,C   4,C   0,N   7)    -42.0012         0.010393   
     68. D(C   8,C   4,C   0,N   7)   -163.7635         0.010393   
     69. D(H   9,C   4,C   0,C   1)   -164.1112         0.010393   
     70. D(H   2,N   7,C   0,H   5)     58.6485         0.016985   
     71. D(H   2,N   7,C   0,C   4)    178.3274         0.016985   
     72. D(H   3,N   7,C   0,C   1)     55.9714         0.016985   
     73. D(H   2,N   7,C   0,C   1)    -61.4500         0.016985   
     74. D(H   3,N   7,C   0,C   4)    -64.2512         0.016985   
     75. D(C  13,C   8,C   4,H  10)    -44.2259         0.011010   
     76. D(C  13,C   8,C   4,H   9)     73.8310         0.011010   
     77. D(C  13,C   8,C   4,C   0)   -165.9835         0.011010   
     78. D(C  11,C   8,C   4,H  10)   -165.9321         0.011010   
     79. D(C  11,C   8,C   4,H   9)    -47.8752         0.011010   
     80. D(C  11,C   8,C   4,C   0)     72.3104         0.011010   
     81. D(H  14,C  11,C   8,H  16)    -61.2255         0.011393   
     82. D(H  14,C  11,C   8,C  13)     57.2438         0.011393   
     83. D(H  14,C  11,C   8,C   4)    178.7409         0.011393   
     84. D(H  12,C  11,C   8,H  16)    179.0655         0.011393   
     85. D(H  12,C  11,C   8,C  13)    -62.4652         0.011393   
     86. D(H  12,C  11,C   8,C   4)     59.0319         0.011393   
     87. D(H   6,C  13,C   8,H  16)   -178.9158         0.011289   
     88. D(H   6,C  13,C   8,C  11)     62.6435         0.011289   
     89. D(H   6,C  13,C   8,C   4)    -60.0163         0.011289   
     90. D(H  17,C  13,C   8,H  16)    -58.8211         0.011289   
     91. D(H  17,C  13,C   8,C  11)   -177.2618         0.011289   
     92. D(H  17,C  13,C   8,C   4)     60.0784         0.011289   
     93. D(H  20,O  19,C   1,O  21)     -1.2912         0.034177   
     94. D(H  20,O  19,C   1,C   0)    178.8628         0.034177   
    -----------------------------------------------------------------

Number of atoms                         .... 22
Number of degrees of freedom            .... 94


         *************************************************************
         *                GEOMETRY OPTIMIZATION CYCLE   1            *
         *************************************************************
---------------------------------
CARTESIAN COORDINATES (ANGSTROEM)
---------------------------------
  C     -9.227360    6.417320   -2.501339
  C     -9.124437    7.201237   -1.201003
  H     -8.544654    7.890131   -3.739679
  H     -7.373105    6.919254   -3.147848
  C     -8.877038    4.943576   -2.223143
  H    -10.250793    6.494236   -2.878046
  H     -8.998055    2.242764   -1.794171
  N     -8.320706    6.926275   -3.514308
  C     -9.960537    4.153144   -1.483212
  H     -8.680045    4.478783   -3.190634
  H     -7.948040    4.920317   -1.647560
  C    -11.155485    3.862852   -2.388185
  H    -10.840263    3.293594   -3.259934
  C     -9.370948    2.841609   -0.966050
  H    -11.901821    3.282727   -1.850454
  H    -11.625146    4.781773   -2.727828
  H    -10.308245    4.739704   -0.626910
  H     -8.547669    3.030321   -0.280709
  H    -10.128033    2.265212   -0.439643
  O    -10.255787    7.183871   -0.487031
  H    -10.143976    7.678734    0.341212
  O     -8.137049    7.785376   -0.836937

----------------------------
CARTESIAN COORDINATES (A.U.)
----------------------------
  NO LB      ZA    FRAG     MASS         X           Y           Z
   0 C     6.0000    0    12.011  -17.437183   12.126977   -4.726846
   1 C     6.0000    0    12.011  -17.242686   13.608366   -2.269567
   2 H     1.0000    0     1.008  -16.147056   14.910187   -7.066968
   3 H     1.0000    0     1.008  -13.933149   13.075494   -5.948570
   4 C     6.0000    0    12.011  -16.775171    9.342005   -4.201132
   5 H     1.0000    0     1.008  -19.371191   12.272327   -5.438718
   6 H     1.0000    0     1.008  -17.003860    4.238210   -3.390492
   7 N     7.0000    0    14.007  -15.723856   13.088763   -6.641080
   8 C     6.0000    0    12.011  -18.822687    7.848304   -2.802864
   9 H     1.0000    0     1.008  -16.402909    8.463674   -6.029424
  10 H     1.0000    0     1.008  -15.019619    9.298052   -3.113438
  11 C     6.0000    0    12.011  -21.080811    7.299732   -4.513015
  12 H     1.0000    0     1.008  -20.485129    6.223991   -6.160383
  13 C     6.0000    0    12.011  -17.708526    5.369863   -1.825570
  14 H     1.0000    0     1.008  -22.491182    6.203455   -3.496851
  15 H     1.0000    0     1.008  -21.968343    9.036242   -5.154848
  16 H     1.0000    0     1.008  -19.479760    8.956742   -1.184689
  17 H     1.0000    0     1.008  -16.152753    5.726476   -0.530463
  18 H     1.0000    0     1.008  -19.139209    4.280631   -0.830804
  19 O     8.0000    0    15.999  -19.380629   13.575549   -0.920355
  20 H     1.0000    0     1.008  -19.169336   14.510703    0.644798
  21 O     8.0000    0    15.999  -15.376793   14.712228   -1.581581

--------------------------------
INTERNAL COORDINATES (ANGSTROEM)
--------------------------------
 C      0   0   0     0.000000000000     0.00000000     0.00000000
 C      1   0   0     1.521838469869     0.00000000     0.00000000
 H      1   2   0     2.041750790171    97.12549540     0.00000000
 H      3   1   2     1.632603483481    65.86483780    89.92221871
 C      1   2   3     1.540142436972   108.85546191   144.43243774
 H      1   2   3     1.093269454376   108.75292002   264.30998168
 H      5   1   2     2.737343273719   164.23171523   104.94148675
 N      3   1   2     1.014870717857    41.75590546   124.79440497
 C      5   1   2     1.531747688938   114.84372666    74.12653747
 H      5   1   2     1.091272791577   106.76669778   195.88878065
 H      5   1   2     1.093103138199   107.98601808   311.48395051
 C      9   5   1     1.526808891139   111.43237812    72.31035411
 H     12   9   5     1.087826150776   110.34637973    59.03186240
 C      7   5   1     1.087864456899    65.87784800   287.33714550
 H     12   9   5     1.087527715312   110.20946560   178.74085812
 H     12   9   5     1.086441999214   111.27319244   298.52770589
 H      9   5   1     1.094625966798   109.03009304   312.60279680
 H     14   7   5     1.087700996483   108.40309271   268.47017522
 H     14   7   5     1.087435451532   108.38268453   151.13539123
 O      2   1   3     1.337913310747   113.08515806   128.41123085
 H     20   2   1     0.971276150228   110.55473371   178.86280065
 O      2   1   3     1.203618637590   124.32774278   308.56835082

---------------------------
INTERNAL COORDINATES (A.U.)
---------------------------
 C      0   0   0     0.000000000000     0.00000000     0.00000000
 C      1   0   0     2.875857928119     0.00000000     0.00000000
 H      1   2   0     3.858349827140    97.12549540     0.00000000
 H      3   1   2     3.085173469066    65.86483780    89.92221871
 C      1   2   3     2.910447413108   108.85546191   144.43243774
 H      1   2   3     2.065979859351   108.75292002   264.30998168
 H      5   1   2     5.172829121861   164.23171523   104.94148675
 N      3   1   2     1.917827718086    41.75590546   124.79440497
 C      5   1   2     2.894583638359   114.84372666    74.12653747
 H      5   1   2     2.062206713480   106.76669778   195.88878065
 H      5   1   2     2.065665567327   107.98601808   311.48395051
 C      9   5   1     2.885250663088   111.43237812    72.31035411
 H     12   9   5     2.055693506284   110.34637973    59.03186240
 C      7   5   1     2.055765894367    65.87784800   287.33714550
 H     12   9   5     2.055129544988   110.20946560   178.74085812
 H     12   9   5     2.053077838905   111.27319244   298.52770589
 H      9   5   1     2.068543296327   109.03009304   312.60279680
 H     14   7   5     2.055456998946   108.40309271   268.47017522
 H     14   7   5     2.054955191712   108.38268453   151.13539123
 O      2   1   3     2.528289748241   113.08515806   128.41123085
 H     20   2   1     1.835445924340   110.55473371   178.86280065
 O      2   1   3     2.274509594728   124.32774278   308.56835082

---------------------
BASIS SET INFORMATION
---------------------
There are 4 groups of distinct atoms

 Group   1 Type C   : 10s4p1d contracted to 3s2p1d pattern {631/31/1}
 Group   2 Type H   : 4s1p contracted to 2s1p pattern {31/1}
 Group   3 Type N   : 10s4p1d contracted to 3s2p1d pattern {631/31/1}
 Group   4 Type O   : 10s4p1d contracted to 3s2p1d pattern {631/31/1}

Atom   0C    basis set group =>   1
Atom   1C    basis set group =>   1
Atom   2H    basis set group =>   2
Atom   3H    basis set group =>   2
Atom   4C    basis set group =>   1
Atom   5H    basis set group =>   2
Atom   6H    basis set group =>   2
Atom   7N    basis set group =>   3
Atom   8C    basis set group =>   1
Atom   9H    basis set group =>   2
Atom  10H    basis set group =>   2
Atom  11C    basis set group =>   1
Atom  12H    basis set group =>   2
Atom  13C    basis set group =>   1
Atom  14H    basis set group =>   2
Atom  15H    basis set group =>   2
Atom  16H    basis set group =>   2
Atom  17H    basis set group =>   2
Atom  18H    basis set group =>   2
Atom  19O    basis set group =>   4
Atom  20H    basis set group =>   2
Atom  21O    basis set group =>   4
---------------------------------
AUXILIARY/J BASIS SET INFORMATION
---------------------------------
There are 4 groups of distinct atoms

 Group   1 Type C   : 12s5p4d2f1g contracted to 6s4p3d1f1g pattern {711111/2111/211/2/1}
 Group   2 Type H   : 5s2p1d contracted to 3s1p1d pattern {311/2/1}
 Group   3 Type N   : 12s5p4d2f1g contracted to 6s4p3d1f1g pattern {711111/2111/211/2/1}
 Group   4 Type O   : 12s5p4d2f1g contracted to 6s4p3d1f1g pattern {711111/2111/211/2/1}

Atom   0C    basis set group =>   1
Atom   1C    basis set group =>   1
Atom   2H    basis set group =>   2
Atom   3H    basis set group =>   2
Atom   4C    basis set group =>   1
Atom   5H    basis set group =>   2
Atom   6H    basis set group =>   2
Atom   7N    basis set group =>   3
Atom   8C    basis set group =>   1
Atom   9H    basis set group =>   2
Atom  10H    basis set group =>   2
Atom  11C    basis set group =>   1
Atom  12H    basis set group =>   2
Atom  13C    basis set group =>   1
Atom  14H    basis set group =>   2
Atom  15H    basis set group =>   2
Atom  16H    basis set group =>   2
Atom  17H    basis set group =>   2
Atom  18H    basis set group =>   2
Atom  19O    basis set group =>   4
Atom  20H    basis set group =>   2
Atom  21O    basis set group =>   4
------------------------------------------------------------------------------
                             ORCA STARTUP CALCULATIONS
                           -- RI-GTO INTEGRALS CHOSEN --
------------------------------------------------------------------------------
------------------------------------------------------------------------------
                   ___                                                        
                  /   \      - P O W E R E D   B Y -                         
                 /     \                                                     
                 |  |  |   _    _      __       _____    __    __             
                 |  |  |  | |  | |    /  \     |  _  \  |  |  /  |          
                  \  \/   | |  | |   /    \    | | | |  |  | /  /          
                 / \  \   | |__| |  /  /\  \   | |_| |  |  |/  /          
                |  |  |   |  __  | /  /__\  \  |    /   |      \           
                |  |  |   | |  | | |   __   |  |    \   |  |\   \          
                \     /   | |  | | |  |  |  |  | |\  \  |  | \   \       
                 \___/    |_|  |_| |__|  |__|  |_| \__\ |__|  \__/        
                                                                              
                      - O R C A' S   B I G   F R I E N D -                    
                                      &                                       
                       - I N T E G R A L  F E E D E R -                       
                                                                              
 v1 FN, 2020, v2 2021, v3 2022-2024                                           
------------------------------------------------------------------------------


----------------------
SHARK INTEGRAL PACKAGE
----------------------

Number of atoms                             ...     22
Number of basis functions                   ...    191
Number of shells                            ...     93
Maximum angular momentum                    ...      2
Integral batch strategy                     ... SHARK/LIBINT Hybrid
RI-J (if used) integral strategy            ... SPLIT-RIJ (Revised 2003 algorithm where possible)
Printlevel                                  ...      1
Contraction scheme used                     ... SEGMENTED contraction
Prescreening option                         ... SCHWARTZ
   Thresh                                   ... 2.500e-11
   Tcut                                     ... 2.500e-12
   Tpresel                                  ... 2.500e-12 
Coulomb Range Separation                    ... NOT USED
Exchange Range Separation                   ... NOT USED
Multipole approximations                    ... NOT USED
Finite Nucleus Model                        ... NOT USED
CABS basis                                  ... NOT available
Auxiliary Coulomb fitting basis             ... AVAILABLE
   # of basis functions in Aux-J            ...    584
   # of shells in Aux-J                     ...    200
   Maximum angular momentum in Aux-J        ...      4
Auxiliary J/K fitting basis                 ... NOT available
Auxiliary Correlation fitting basis         ... NOT available
Auxiliary 'external' fitting basis          ... NOT available

Checking pre-screening integrals            ... done (  0.0 sec) Dimension = 93
   => SHARK Basis and OBASIS are compatible. Storing Pre-screening
Shell pair information
Shell pair cut-off parameter TPreSel        ...   2.5e-12
Total number of shell pairs                 ...      4371
Shell pairs after pre-screening             ...      3910
Total number of primitive shell pairs       ...     20328
Primitive shell pairs kept                  ...     12147
          la=0 lb=0:   1294 shell pairs
          la=1 lb=0:   1461 shell pairs
          la=1 lb=1:    437 shell pairs
          la=2 lb=0:    428 shell pairs
          la=2 lb=1:    248 shell pairs
          la=2 lb=2:     42 shell pairs

Checking whether 4 symmetric matrices of dimension 191 fit in memory
:Max Core in MB      =   4096.00
 MB in use           =      8.62
 MB left             =   4087.38
 MB needed           =      0.56
 Data fit in memory  = YES
Calculating RI/J V-Matrix + Cholesky decomp.... done (  0.0 sec)
Calculating Nuclear repulsion               ... done (  0.0 sec) ENN=    487.641982138402 Eh

Diagonalization of the overlap matrix:
Smallest eigenvalue                        ... 2.995e-03
Time for diagonalization                   ...    0.002 sec
Threshold for overlap eigenvalues          ... 1.000e-07
Number of eigenvalues below threshold      ... 0
Time for construction of square roots      ...    0.001 sec
Total time needed                          ...    0.003 sec

-------------------
DFT GRID GENERATION
-------------------

General Integration Accuracy     IntAcc      ... 4.388
Radial Grid Type                 RadialGrid  ... OptM3 with GC (2021)
Angular Grid (max. ang.)         AngularGrid ... 4 (Lebedev-302)
Angular grid pruning method      GridPruning ... 4 (adaptive)
Weight generation scheme         WeightScheme... mBecke (2022)
Basis function cutoff            BFCut       ... 1.0000e-11
Integration weight cutoff        WCut        ... 1.0000e-14
Partially contracted basis set               ... off
Rotationally invariant grid construction     ... off
Angular grids for H and He will be reduced by one unit

Total number of grid points                  ...    95639
Total number of batches                      ...     1507
Average number of points per batch           ...       63
Average number of grid points per atom       ...     4347
Grids setup in   0.4 sec
Initializing property integral containers    ... done (  0.0 sec)

SHARK setup successfully completed in   0.5 seconds

Maximum memory used throughout the entire STARTUP-calculation: 40.6 MB
-------------------------------------------------------------------------------
                                 ORCA GUESS
                   Start orbitals & Density for SCF / CASSCF
-------------------------------------------------------------------------------

------------
SCF SETTINGS
------------
Hamiltonian:
 Density Functional     Method          .... DFT(GTOs)
 Exchange Functional    Exchange        .... B97(D)
 Correlation Functional Correlation     .... B97(D)
 Gradients option       PostSCFGGA      .... off
 RI-approximation to the Coulomb term is turned on
   Number of AuxJ basis functions       .... 584


General Settings:
 Integral files         IntName         .... 3
 Hartree-Fock type      HFTyp           .... RHF
 Total Charge           Charge          ....    0
 Multiplicity           Mult            ....    1
 Number of Electrons    NEL             ....   72
 Basis Dimension        Dim             ....  191
 Nuclear Repulsion      ENuc            ....    487.6419821384 Eh

Convergence Acceleration:
 AO-DIIS                CNVDIIS         .... on
   Start iteration      DIISMaxIt       ....    12
   Startup error        DIISStart       ....  0.200000
   # of expansion vecs  DIISMaxEq       ....     5
   Bias factor          DIISBfac        ....   1.050
   Max. coefficient     DIISMaxC        ....  10.000
 MO-DIIS                CNVKDIIS        .... off
 Trust-Rad. Augm. Hess. CNVTRAH         .... auto
   Auto Start mean grad. ratio tolernc. ....  1.125000
   Auto Start start iteration           ....    50
   Auto Start num. interpolation iter.  ....    10
   Max. Number of Micro iterations      ....    24
   Max. Number of Macro iterations      .... Maxiter - #DIIS iter
   Number of Davidson start vectors     ....     2
   Converg. threshold    (grad. norm)   ....   1.000e-05
   Grad. Scal. Fac. for Micro threshold ....   0.100
   Minimum threshold for Micro iter.    ....   1.000e-02
   NR start threshold (gradient norm)   ....   1.000e-04
   Initial trust radius                 ....   0.400
   Minimum AH scaling param. (alpha)    ....   1.000
   Maximum AH scaling param. (alpha)    .... 1000.000
   Quad. conv. algorithm                .... NR
   White noise on init. David. guess    .... on
   Maximum white noise                  ....   0.010
   Pseudo random numbers                .... off
   Inactive MOs                         .... canonical
   Orbital update algorithm             .... Taylor
   Preconditioner                       .... Diag
   Full preconditioner red. dimension   ....   250
 SOSCF                 CNVSOSCF           .... on
   Start iteration     SOSCFMaxIt         ....   150
   Startup grad/error  SOSCFStart         ....  0.003300
   Hessian update      SOSCFHessUp        .... L-BFGS
   Autom. constraints  SOSCFAutoConstrain .... off
 Level Shifting         CNVShift        .... on
   Level shift para.    LevelShift      ....    0.2500
   Turn off err/grad.   ShiftErr        ....    0.0010
 Zerner damping         CNVZerner       .... off
 Static damping         CNVDamp         .... on
   Fraction old density DampFac         ....    0.7000
   Max. Damping (<1)    DampMax         ....    0.9800
   Min. Damping (>=0)   DampMin         ....    0.0000
   Turn off err/grad.   DampErr         ....    0.1000

SCF Procedure:
 Maximum # iterations   MaxIter         ....   125
 SCF integral mode      SCFMode         .... Direct
   Integral package                     .... SHARK and LIBINT hybrid scheme
 Reset frequency        DirectResetFreq ....    20
 Integral Threshold     Thresh          ....  2.500e-11 Eh
 Primitive CutOff       TCut            ....  2.500e-12 Eh

Convergence Tolerance:
 Convergence Check Mode ConvCheckMode   .... Total+1el-Energy
 Convergence forced     ConvForced      .... 0
 Energy Change          TolE            ....  1.000e-08 Eh
 1-El. energy change                    ....  1.000e-05 Eh
 Orbital Gradient       TolG            ....  1.000e-05
 Orbital Rotation angle TolX            ....  1.000e-05
 DIIS Error             TolErr          ....  5.000e-07

------------------------------
INITIAL GUESS: MODEL POTENTIAL
------------------------------
Loading Hartree-Fock densities                     ... done
Calculating cut-offs                               ... done
Initializing the effective Hamiltonian             ... done
Setting up the integral package (SHARK)            ... done
Starting the Coulomb interaction                   ... done (   0.1 sec)
Making the grid                                    ... done (   0.1 sec)
Mapping shells                                     ... done
Starting the XC term evaluation                    ... done (   0.1 sec)
  promolecular density results
     # of electrons  =     71.997127655
     EX              =    -56.845332602
     EC              =     -3.117713634
     EX+EC           =    -59.963046237
Transforming the Hamiltonian                       ... done (   0.0 sec)
Diagonalizing the Hamiltonian                      ... done (   0.0 sec)
Back transforming the eigenvectors                 ... done (   0.0 sec)
Now organizing SCF variables                       ... done
                      ------------------
                      INITIAL GUESS DONE (   0.3 sec)
                      ------------------
             **** ENERGY FILE WAS UPDATED (3.en.tmp) ****
Finished Guess after   0.3 sec
Maximum memory used throughout the entire GUESS-calculation: 13.7 MB

-------------------------------------------------------------------------------------------
                                      ORCA LEAN-SCF
                              memory conserving SCF solver
-------------------------------------------------------------------------------------------

----------------------------------------D-I-I-S--------------------------------------------
Iteration    Energy (Eh)           Delta-E    RMSDP     MaxDP     DIISErr   Damp  Time(sec)
-------------------------------------------------------------------------------------------
               ***  Starting incremental Fock matrix formation  ***
    1    -441.0177302964067394     0.00e+00  3.54e-03  1.02e-01  2.55e-01  0.700   0.6
    2    -441.1963397307657715    -1.79e-01  2.34e-03  5.22e-02  9.47e-02  0.700   0.5
                               ***Turning on AO-DIIS***
    3    -441.2524441778857636    -5.61e-02  9.06e-04  1.65e-02  2.92e-02  0.700   0.5
    4    -441.2882423160167491    -3.58e-02  1.19e-03  1.86e-02  1.07e-02  0.000   0.5
    5    -441.3709429021107553    -8.27e-02  4.10e-04  8.31e-03  1.06e-02  0.000   0.5
                              *** Initializing SOSCF ***
---------------------------------------S-O-S-C-F--------------------------------------
Iteration    Energy (Eh)           Delta-E    RMSDP     MaxDP     MaxGrad    Time(sec)
--------------------------------------------------------------------------------------
    6    -441.3718498281232314    -9.07e-04  1.47e-04  2.95e-03  3.03e-03     0.5
               *** Restarting incremental Fock matrix formation ***
    7    -441.3719162647888652    -6.64e-05  1.25e-04  3.93e-03  8.14e-04     0.6
    8    -441.3718850320709635     3.12e-05  6.84e-05  2.94e-03  2.32e-03     0.5
    9    -441.3719259843604732    -4.10e-05  4.36e-05  7.87e-04  2.08e-04     0.5
   10    -441.3719237707788352     2.21e-06  2.51e-05  5.35e-04  2.37e-04     0.5
   11    -441.3719276710945678    -3.90e-06  6.54e-06  2.20e-04  3.23e-05     0.5
   12    -441.3719275916945435     7.94e-08  3.91e-06  1.43e-04  5.30e-05     0.5
   13    -441.3719277186155523    -1.27e-07  7.91e-07  2.19e-05  4.47e-06     0.4
   14    -441.3719277191942183    -5.79e-10  4.51e-07  1.36e-05  5.93e-06     0.4
                 **** Energy Check signals convergence ****

               *****************************************************
               *                     SUCCESS                       *
               *           SCF CONVERGED AFTER  14 CYCLES          *
               *****************************************************

             **** ENERGY FILE WAS UPDATED (3.en.tmp) ****

----------------
TOTAL SCF ENERGY
----------------

Total Energy       :       -441.37192771904199 Eh          -12010.34075 eV

Components:
Nuclear Repulsion  :        487.64198213840154 Eh           13269.41294 eV
Electronic Energy  :       -929.01390985744354 Eh          -25279.75369 eV
One Electron Energy:      -1567.25167259263117 Eh          -42647.08615 eV
Two Electron Energy:        638.23776273518763 Eh           17367.33246 eV

Virial components:
Potential Energy   :       -880.48514193269580 Eh          -23959.21878 eV
Kinetic Energy     :        439.11321421365375 Eh           11948.87803 eV
Virial Ratio       :          2.00514380672746

DFT components:
N(Alpha)           :       35.999977786791 electrons
N(Beta)            :       35.999977786791 electrons
N(Total)           :       71.999955573582 electrons
E(X)               :      -58.276813449407 Eh       
E(C)               :       -3.114416944230 Eh       
E(XC)              :      -61.391230393637 Eh       

---------------
SCF CONVERGENCE
---------------

  Last Energy change         ...    5.7867e-10  Tolerance :   1.0000e-08
  Last MAX-Density change    ...    1.3591e-05  Tolerance :   1.0000e-07
  Last RMS-Density change    ...    4.5090e-07  Tolerance :   5.0000e-09
  Last DIIS Error            ...    3.0300e-03  Tolerance :   5.0000e-07
  Last Orbital Gradient      ...    5.9316e-06  Tolerance :   1.0000e-05
  Last Orbital Rotation      ...    6.1092e-06  Tolerance :   1.0000e-05


----------------
ORBITAL ENERGIES
----------------

  NO   OCC          E(Eh)            E(eV) 
   0   2.0000     -18.815589      -511.9982 
   1   2.0000     -18.752738      -510.2880 
   2   2.0000     -13.985130      -380.5547 
   3   2.0000     -10.026501      -272.8350 
   4   2.0000      -9.944387      -270.6005 
   5   2.0000      -9.906891      -269.5802 
   6   2.0000      -9.903898      -269.4988 
   7   2.0000      -9.890816      -269.1428 
   8   2.0000      -9.890539      -269.1352 
   9   2.0000      -1.021203       -27.7883 
  10   2.0000      -0.931362       -25.3437 
  11   2.0000      -0.813791       -22.1444 
  12   2.0000      -0.733706       -19.9652 
  13   2.0000      -0.662883       -18.0380 
  14   2.0000      -0.615425       -16.7466 
  15   2.0000      -0.602245       -16.3879 
  16   2.0000      -0.536896       -14.6097 
  17   2.0000      -0.500844       -13.6287 
  18   2.0000      -0.461514       -12.5584 
  19   2.0000      -0.430388       -11.7114 
  20   2.0000      -0.421159       -11.4603 
  21   2.0000      -0.408186       -11.1073 
  22   2.0000      -0.393164       -10.6985 
  23   2.0000      -0.385367       -10.4864 
  24   2.0000      -0.370246       -10.0749 
  25   2.0000      -0.357613        -9.7312 
  26   2.0000      -0.338253        -9.2043 
  27   2.0000      -0.333684        -9.0800 
  28   2.0000      -0.321174        -8.7396 
  29   2.0000      -0.311285        -8.4705 
  30   2.0000      -0.286999        -7.8096 
  31   2.0000      -0.279851        -7.6151 
  32   2.0000      -0.276964        -7.5366 
  33   2.0000      -0.267164        -7.2699 
  34   2.0000      -0.224854        -6.1186 
  35   2.0000      -0.193898        -5.2762 
  36   0.0000      -0.016846        -0.4584 
  37   0.0000       0.050623         1.3775 
  38   0.0000       0.073780         2.0076 
  39   0.0000       0.079924         2.1748 
  40   0.0000       0.096312         2.6208 
  41   0.0000       0.115364         3.1392 
  42   0.0000       0.122619         3.3366 
  43   0.0000       0.133820         3.6414 
  44   0.0000       0.151644         4.1264 
  45   0.0000       0.155202         4.2233 
  46   0.0000       0.160615         4.3706 
*Only the first 10 virtual orbitals were printed.

                    ********************************
                    * MULLIKEN POPULATION ANALYSIS *
                    ********************************

-----------------------
MULLIKEN ATOMIC CHARGES
-----------------------
   0 C :   -0.047083
   1 C :    0.492330
   2 H :    0.239339
   3 H :    0.246577
   4 C :   -0.177000
   5 H :    0.122531
   6 H :    0.105047
   7 N :   -0.555509
   8 C :   -0.080789
   9 H :    0.120187
  10 H :    0.100710
  11 C :   -0.319865
  12 H :    0.106227
  13 C :   -0.320743
  14 H :    0.104675
  15 H :    0.105815
  16 H :    0.107418
  17 H :    0.103556
  18 H :    0.102432
  19 O :   -0.450119
  20 H :    0.315601
  21 O :   -0.421337
Sum of atomic charges:    0.0000000

--------------------------------
MULLIKEN REDUCED ORBITAL CHARGES
--------------------------------
  0 C s       :     3.199388  s :     3.199388
      pz      :     0.851578  p :     2.790434
      px      :     0.979494
      py      :     0.959362
      dz2     :     0.014819  d :     0.057260
      dxz     :     0.010687
      dyz     :     0.013038
      dx2y2   :     0.011759
      dxy     :     0.006958

  1 C s       :     2.988205  s :     2.988205
      pz      :     0.854178  p :     2.394938
      px      :     0.716400
      py      :     0.824360
      dz2     :     0.019481  d :     0.124528
      dxz     :     0.036525
      dyz     :     0.014251
      dx2y2   :     0.030374
      dxy     :     0.023896

  2 H s       :     0.736781  s :     0.736781
      pz      :     0.007660  p :     0.023880
      px      :     0.004900
      py      :     0.011320

  3 H s       :     0.729503  s :     0.729503
      pz      :     0.007265  p :     0.023921
      px      :     0.010873
      py      :     0.005783

  4 C s       :     3.236789  s :     3.236789
      pz      :     1.030993  p :     2.904350
      px      :     0.977466
      py      :     0.895891
      dz2     :     0.006028  d :     0.035861
      dxz     :     0.007955
      dyz     :     0.007067
      dx2y2   :     0.009570
      dxy     :     0.005241

  5 H s       :     0.866380  s :     0.866380
      pz      :     0.002554  p :     0.011089
      px      :     0.006143
      py      :     0.002393

  6 H s       :     0.883348  s :     0.883348
      pz      :     0.004702  p :     0.011605
      px      :     0.003108
      py      :     0.003796

  7 N s       :     3.592804  s :     3.592804
      pz      :     1.511645  p :     3.934020
      px      :     1.122043
      py      :     1.300332
      dz2     :     0.005787  d :     0.028685
      dxz     :     0.008110
      dyz     :     0.002577
      dx2y2   :     0.010663
      dxy     :     0.001549

  8 C s       :     3.208268  s :     3.208268
      pz      :     0.974205  p :     2.829053
      px      :     0.916726
      py      :     0.938121
      dz2     :     0.006047  d :     0.043468
      dxz     :     0.010027
      dyz     :     0.010251
      dx2y2   :     0.007667
      dxy     :     0.009476

  9 H s       :     0.868133  s :     0.868133
      pz      :     0.005971  p :     0.011681
      px      :     0.002695
      py      :     0.003014

 10 H s       :     0.887610  s :     0.887610
      pz      :     0.003732  p :     0.011680
      px      :     0.005452
      py      :     0.002496

 11 C s       :     3.246482  s :     3.246482
      pz      :     1.012283  p :     3.042994
      px      :     0.990389
      py      :     1.040323
      dz2     :     0.004197  d :     0.030388
      dxz     :     0.007224
      dyz     :     0.007518
      dx2y2   :     0.003696
      dxy     :     0.007754

 12 H s       :     0.882196  s :     0.882196
      pz      :     0.005095  p :     0.011577
      px      :     0.002794
      py      :     0.003688

 13 C s       :     3.248788  s :     3.248788
      pz      :     1.030477  p :     3.041490
      px      :     1.028005
      py      :     0.983008
      dz2     :     0.002032  d :     0.030464
      dxz     :     0.008993
      dyz     :     0.008059
      dx2y2   :     0.004641
      dxy     :     0.006739

 14 H s       :     0.883714  s :     0.883714
      pz      :     0.003438  p :     0.011612
      px      :     0.004412
      py      :     0.003762

 15 H s       :     0.882446  s :     0.882446
      pz      :     0.003016  p :     0.011739
      px      :     0.003394
      py      :     0.005329

 16 H s       :     0.880671  s :     0.880671
      pz      :     0.004952  p :     0.011911
      px      :     0.002923
      py      :     0.004036

 17 H s       :     0.884849  s :     0.884849
      pz      :     0.004160  p :     0.011595
      px      :     0.004841
      py      :     0.002595

 18 H s       :     0.885980  s :     0.885980
      pz      :     0.003533  p :     0.011588
      px      :     0.004379
      py      :     0.003676

 19 O s       :     3.825129  s :     3.825129
      pz      :     1.362669  p :     4.602267
      px      :     1.559710
      py      :     1.679888
      dz2     :     0.003572  d :     0.022722
      dxz     :     0.005026
      dyz     :     0.004027
      dx2y2   :     0.005583
      dxy     :     0.004514

 20 H s       :     0.646522  s :     0.646522
      pz      :     0.017962  p :     0.037876
      px      :     0.007527
      py      :     0.012387

 21 O s       :     3.857530  s :     3.857530
      pz      :     1.647310  p :     4.535771
      px      :     1.456746
      py      :     1.431715
      dz2     :     0.003399  d :     0.028036
      dxz     :     0.006493
      dyz     :     0.002400
      dx2y2   :     0.008053
      dxy     :     0.007690



                     *******************************
                     * LOEWDIN POPULATION ANALYSIS *
                     *******************************

----------------------
LOEWDIN ATOMIC CHARGES
----------------------
   0 C :   -0.050061
   1 C :    0.102525
   2 H :    0.124950
   3 H :    0.127870
   4 C :   -0.111409
   5 H :    0.078973
   6 H :    0.067318
   7 N :   -0.244142
   8 C :   -0.075417
   9 H :    0.077734
  10 H :    0.068561
  11 C :   -0.196129
  12 H :    0.067763
  13 C :   -0.195483
  14 H :    0.069413
  15 H :    0.066656
  16 H :    0.068219
  17 H :    0.067295
  18 H :    0.067917
  19 O :   -0.138117
  20 H :    0.180503
  21 O :   -0.224939

-------------------------------
LOEWDIN REDUCED ORBITAL CHARGES
-------------------------------
  0 C s       :     2.880766  s :     2.880766
      pz      :     0.979860  p :     3.039450
      px      :     1.033254
      py      :     1.026336
      dz2     :     0.034293  d :     0.129845
      dxz     :     0.024306
      dyz     :     0.030443
      dx2y2   :     0.026348
      dxy     :     0.014455

  1 C s       :     2.858711  s :     2.858711
      pz      :     0.941692  p :     2.741711
      px      :     0.931560
      py      :     0.868460
      dz2     :     0.046147  d :     0.297053
      dxz     :     0.088211
      dyz     :     0.032929
      dx2y2   :     0.073757
      dxy     :     0.056009

  2 H s       :     0.796358  s :     0.796358
      pz      :     0.022524  p :     0.078692
      px      :     0.012965
      py      :     0.043203

  3 H s       :     0.792706  s :     0.792706
      pz      :     0.023352  p :     0.079425
      px      :     0.040876
      py      :     0.015197

  4 C s       :     2.907609  s :     2.907609
      pz      :     1.077308  p :     3.123318
      px      :     1.053259
      py      :     0.992751
      dz2     :     0.012947  d :     0.080482
      dxz     :     0.017261
      dyz     :     0.015390
      dx2y2   :     0.022127
      dxy     :     0.012757

  5 H s       :     0.880812  s :     0.880812
      pz      :     0.008618  p :     0.040215
      px      :     0.023999
      py      :     0.007599

  6 H s       :     0.893008  s :     0.893008
      pz      :     0.017460  p :     0.039675
      px      :     0.009316
      py      :     0.012898

  7 N s       :     3.199055  s :     3.199055
      pz      :     1.509172  p :     3.987007
      px      :     1.158986
      py      :     1.318848
      dz2     :     0.009847  d :     0.058080
      dxz     :     0.016401
      dyz     :     0.005565
      dx2y2   :     0.021389
      dxy     :     0.004878

  8 C s       :     2.879064  s :     2.879064
      pz      :     1.047559  p :     3.096610
      px      :     1.021184
      py      :     1.027868
      dz2     :     0.012315  d :     0.099742
      dxz     :     0.024761
      dyz     :     0.022715
      dx2y2   :     0.017546
      dxy     :     0.022404

  9 H s       :     0.881852  s :     0.881852
      pz      :     0.022602  p :     0.040414
      px      :     0.007733
      py      :     0.010078

 10 H s       :     0.891694  s :     0.891694
      pz      :     0.012239  p :     0.039745
      px      :     0.020686
      py      :     0.006820

 11 C s       :     2.917374  s :     2.917374
      pz      :     1.072461  p :     3.214435
      px      :     1.056564
      py      :     1.085411
      dz2     :     0.008333  d :     0.064320
      dxz     :     0.016897
      dyz     :     0.015147
      dx2y2   :     0.008190
      dxy     :     0.015752

 12 H s       :     0.892555  s :     0.892555
      pz      :     0.019005  p :     0.039683
      px      :     0.008507
      py      :     0.012170

 13 C s       :     2.918957  s :     2.918957
      pz      :     1.081319  p :     3.212056
      px      :     1.080037
      py      :     1.050700
      dz2     :     0.004280  d :     0.064471
      dxz     :     0.018217
      dyz     :     0.017065
      dx2y2   :     0.010191
      dxy     :     0.014717

 14 H s       :     0.891028  s :     0.891028
      pz      :     0.011414  p :     0.039559
      px      :     0.015815
      py      :     0.012330

 15 H s       :     0.893191  s :     0.893191
      pz      :     0.009065  p :     0.040153
      px      :     0.010880
      py      :     0.020208

 16 H s       :     0.891550  s :     0.891550
      pz      :     0.018267  p :     0.040231
      px      :     0.008961
      py      :     0.013003

 17 H s       :     0.893222  s :     0.893222
      pz      :     0.014274  p :     0.039483
      px      :     0.017572
      py      :     0.007637

 18 H s       :     0.892520  s :     0.892520
      pz      :     0.011332  p :     0.039563
      px      :     0.015700
      py      :     0.012531

 19 O s       :     3.472584  s :     3.472584
      pz      :     1.375050  p :     4.614389
      px      :     1.583227
      py      :     1.656112
      dz2     :     0.009641  d :     0.051143
      dxz     :     0.014018
      dyz     :     0.009331
      dx2y2   :     0.011192
      dxy     :     0.006961

 20 H s       :     0.703928  s :     0.703928
      pz      :     0.056268  p :     0.115569
      px      :     0.021755
      py      :     0.037547

 21 O s       :     3.554479  s :     3.554479
      pz      :     1.645904  p :     4.612492
      px      :     1.521263
      py      :     1.445325
      dz2     :     0.007227  d :     0.057968
      dxz     :     0.013341
      dyz     :     0.005353
      dx2y2   :     0.014376
      dxy     :     0.017671



                      *****************************
                      * MAYER POPULATION ANALYSIS *
                      *****************************

  NA   - Mulliken gross atomic population
  ZA   - Total nuclear charge
  QA   - Mulliken gross atomic charge
  VA   - Mayer's total valence
  BVA  - Mayer's bonded valence
  FA   - Mayer's free valence

  ATOM       NA         ZA         QA         VA         BVA        FA
  0 C      6.0471     6.0000    -0.0471     3.8669     3.8669     0.0000
  1 C      5.5077     6.0000     0.4923     3.9449     3.9449     0.0000
  2 H      0.7607     1.0000     0.2393     0.9215     0.9215     0.0000
  3 H      0.7534     1.0000     0.2466     0.9302     0.9302     0.0000
  4 C      6.1770     6.0000    -0.1770     3.8546     3.8546    -0.0000
  5 H      0.8775     1.0000     0.1225     0.9541     0.9541     0.0000
  6 H      0.8950     1.0000     0.1050     0.9576     0.9576     0.0000
  7 N      7.5555     7.0000    -0.5555     2.9084     2.9084    -0.0000
  8 C      6.0808     6.0000    -0.0808     3.9195     3.9195     0.0000
  9 H      0.8798     1.0000     0.1202     0.9621     0.9621     0.0000
 10 H      0.8993     1.0000     0.1007     0.9594     0.9594    -0.0000
 11 C      6.3199     6.0000    -0.3199     3.8850     3.8850    -0.0000
 12 H      0.8938     1.0000     0.1062     0.9584     0.9584     0.0000
 13 C      6.3207     6.0000    -0.3207     3.8860     3.8860     0.0000
 14 H      0.8953     1.0000     0.1047     0.9571     0.9571    -0.0000
 15 H      0.8942     1.0000     0.1058     0.9582     0.9582     0.0000
 16 H      0.8926     1.0000     0.1074     0.9609     0.9609    -0.0000
 17 H      0.8964     1.0000     0.1036     0.9568     0.9568     0.0000
 18 H      0.8976     1.0000     0.1024     0.9570     0.9570     0.0000
 19 O      8.4501     8.0000    -0.4501     2.0430     2.0430    -0.0000
 20 H      0.6844     1.0000     0.3156     0.9198     0.9198     0.0000
 21 O      8.4213     8.0000    -0.4213     2.1120     2.1120     0.0000

  Mayer bond orders larger than 0.100000
B(  0-C ,  1-C ) :   0.8953 B(  0-C ,  4-C ) :   0.9733 B(  0-C ,  5-H ) :   0.9212 
B(  0-C ,  7-N ) :   1.0521 B(  1-C , 19-O ) :   1.0765 B(  1-C , 21-O ) :   1.9225 
B(  2-H ,  7-N ) :   0.9093 B(  3-H ,  7-N ) :   0.8978 B(  4-C ,  8-C ) :   0.9932 
B(  4-C ,  9-H ) :   0.9332 B(  4-C , 10-H ) :   0.9397 B(  6-H , 13-C ) :   0.9591 
B(  8-C , 11-C ) :   1.0102 B(  8-C , 13-C ) :   1.0040 B(  8-C , 16-H ) :   0.9313 
B( 11-C , 12-H ) :   0.9582 B( 11-C , 14-H ) :   0.9596 B( 11-C , 15-H ) :   0.9557 
B( 13-C , 17-H ) :   0.9596 B( 13-C , 18-H ) :   0.9596 B( 19-O , 20-H ) :   0.8510 


-------
TIMINGS
-------

Total SCF time: 0 days 0 hours 0 min 7 sec 

Total time                  ....       7.456 sec
Sum of individual times     ....       6.984 sec  ( 93.7%)

SCF preparation             ....       0.029 sec  (  0.4%)
Fock matrix formation       ....       6.890 sec  ( 92.4%)
  Startup                   ....       0.001 sec  (  0.0% of F)
  Split-RI-J                ....       2.374 sec  ( 34.5% of F)
  XC integration            ....       4.911 sec  ( 71.3% of F)
    XC Preparation          ....       0.000 sec  (  0.0% of XC)
    Basis function eval.    ....       1.741 sec  ( 35.4% of XC)
    Density eval.           ....       1.096 sec  ( 22.3% of XC)
    XC-Functional eval.     ....       0.876 sec  ( 17.8% of XC)
    XC-Potential eval.      ....       1.059 sec  ( 21.6% of XC)
Diagonalization             ....       0.000 sec  (  0.0%)
Density matrix formation    ....       0.005 sec  (  0.1%)
Total Energy calculation    ....       0.001 sec  (  0.0%)
Population analysis         ....       0.003 sec  (  0.0%)
Orbital Transformation      ....       0.006 sec  (  0.1%)
Orbital Orthonormalization  ....       0.000 sec  (  0.0%)
DIIS solution               ....       0.028 sec  (  0.4%)
SOSCF solution              ....       0.021 sec  (  0.3%)
Finished LeanSCF after   7.5 sec

Maximum memory used throughout the entire LEANSCF-calculation: 21.5 MB



-------------------------------------------------------------------------------
                          DFT DISPERSION CORRECTION                            
-------------------------------------------------------------------------------
Active option DFTDOPT                   ...         2   
Final C6-coefficient scaling factor     ...     1.250
Final VDW-radii scaling factor          ...     1.100
Damping factor alpha                    ...    20.000
-------------------------   ----------------
Dispersion correction           -0.033453536
-------------------------   ----------------


-------------------------   --------------------
FINAL SINGLE POINT ENERGY      -441.405381255121
-------------------------   --------------------

------------------------------------------------------------------------------
                         ORCA SCF GRADIENT CALCULATION
------------------------------------------------------------------------------

Nuc. rep. gradient        (SHARK) ... done (  0.0 sec)
HCore & Overlap gradient  (SHARK) ... done (  0.1 sec)
Split-RIJ-J gradient      (SHARK) ... done (  0.6 sec)
XC gradient                       ... done (  2.8 sec)
Dispersion correction             ... done (  0.0 sec)

-------------------
DISPERSION GRADIENT
-------------------

   1   C   :    0.001411234    0.000424967    0.000029670
   2   C   :   -0.000052197    0.000652990   -0.000189637
   3   H   :    0.000520181    0.000231569   -0.000617531
   4   H   :    0.000287358    0.000602103   -0.000791510
   5   C   :   -0.000363140    0.000578795   -0.000064802
   6   H   :    0.000542288    0.000983895   -0.000122176
   7   H   :    0.000113116   -0.000526287    0.001399181
   8   N   :   -0.000359352    0.000213383    0.000268190
   9   C   :    0.000225864   -0.001935012   -0.000832193
  10   H   :    0.000866621    0.000652826    0.000192608
  11   H   :   -0.000097957   -0.000312175   -0.000624349
  12   C   :   -0.000596362   -0.000407288    0.000280714
  13   H   :   -0.001559433    0.000236830    0.000164060
  14   C   :    0.000032353   -0.000018417    0.000602001
  15   H   :   -0.000235108    0.000559227   -0.001130411
  16   H   :   -0.000938825   -0.001664626   -0.000118935
  17   H   :   -0.000233861   -0.000477570    0.000357958
  18   H   :   -0.000636265   -0.001241709   -0.000062258
  19   H   :    0.001284838   -0.000245142    0.000055401
  20   O   :   -0.000008720    0.000899981    0.000490258
  21   H   :    0.000379429    0.000265694   -0.000009519
  22   O   :   -0.000582063    0.000525966    0.000723280

Difference to translation invariance:
           :    0.0000000000    0.0000000000    0.0000000000

Difference to rotation invariance:
           :   -0.0000000000    0.0000000000   -0.0000000000

Norm of the Dispersion gradient    ...    0.0054887929
RMS gradient                       ...    0.0006756237
MAX gradient                       ...    0.0019350122

------------------
CARTESIAN GRADIENT
------------------

   1   C   :   -0.002609338    0.000708529    0.002907372
   2   C   :    0.005123845    0.002270324    0.006964733
   3   H   :   -0.000474475   -0.004337268   -0.001220677
   4   H   :   -0.002665828   -0.002107827   -0.002879132
   5   C   :    0.005603021   -0.001630934   -0.002814170
   6   H   :    0.004055565    0.000978210    0.001368972
   7   H   :   -0.003254014    0.005521586    0.006532161
   8   N   :    0.000046470    0.003436188    0.011762399
   9   C   :   -0.002070228    0.002895383   -0.000346757
  10   H   :   -0.001739840    0.003062378    0.005358395
  11   H   :   -0.006388430   -0.000014877   -0.002257263
  12   C   :   -0.000805623   -0.002967392   -0.003528535
  13   H   :   -0.002354747    0.004628982    0.007282543
  14   C   :    0.002095207   -0.003449426   -0.001462590
  15   H   :    0.006385156    0.004475232   -0.003312050
  16   H   :    0.004542354   -0.006915491    0.003838617
  17   H   :    0.000936323   -0.001896720   -0.003199006
  18   H   :   -0.006968789   -0.000694130   -0.005092847
  19   H   :    0.005404578    0.005643451   -0.003977401
  20   O   :    0.028512885    0.006742285   -0.005565028
  21   H   :   -0.005990680   -0.002604823   -0.001465060
  22   O   :   -0.027383412   -0.013743660   -0.008894674

Difference to translation invariance:
           :   -0.0000000000    0.0000000000   -0.0000000000

Difference to rotation invariance:
           :    0.0002318551    0.0001814818   -0.0002602354

Norm of the Cartesian gradient     ...    0.0540830489
RMS gradient                       ...    0.0066571631
MAX gradient                       ...    0.0285128847

-------
TIMINGS
-------

Total SCF gradient time     ....        3.542 sec

Densities                   ....       0.000 sec  (  0.0%)
One electron gradient       ....       0.136 sec  (  3.8%)
RI-J Coulomb gradient       ....       0.632 sec  ( 17.9%)
XC gradient                 ....       2.772 sec  ( 78.3%)

Maximum memory used throughout the entire SCFGRAD-calculation: 27.4 MB
------------------------------------------------------------------------------
                         ORCA GEOMETRY RELAXATION STEP
------------------------------------------------------------------------------

Reading the OPT-File                    .... done
Getting information on internals        .... done
Copying old internal coords+grads       .... done
Making the new internal coordinates     .... (2022 redundants) done
Validating the new internal coordinates .... (2022 redundants) done
Calculating the B-matrix                .... done
Calculating the G,G- and P matrices     .... done
Transforming gradient to internals      .... done
Projecting the internal gradient        .... done
Number of atoms                         ....  22
Number of internal coordinates          ....  94
Current Energy                          ....  -441.405381255 Eh
Current gradient norm                   ....     0.054083049 Eh/bohr
Maximum allowed component of the step   ....  0.300
Current trust radius                    ....  0.300
Evaluating the initial hessian          ....  (Almloef) done
Projecting the Hessian                  .... done
Forming the augmented Hessian           .... done
Diagonalizing the augmented Hessian     .... done
Last element of RFO vector              ....  0.980338956
Lowest eigenvalues of augmented Hessian:
 -0.005953034  0.010433447  0.011028095  0.011285536  0.011328206
Length of the computed step             ....  0.201278225
The final length of the internal step   ....  0.201278225
Converting the step to Cartesian space:
 Initial RMS(Int)=    0.0207602638
Transforming coordinates:
 Iter   0:  RMS(Cart)=    0.0662641801 RMS(Int)=    0.0209051382
 Iter   5:  RMS(Cart)=    0.0000000221 RMS(Int)=    0.0000000130
done
Storing new coordinates                 .... done

                                .--------------------.
          ----------------------|Geometry convergence|-------------------------
          Item                value                   Tolerance       Converged
          ---------------------------------------------------------------------
          RMS gradient        0.0055381494            0.0001000000      NO
          MAX gradient        0.0318279949            0.0003000000      NO
          RMS step            0.0207602638            0.0020000000      NO
          MAX step            0.0677081034            0.0040000000      NO
          -------------------------------------------------------------------------
          ........................................................
          Max(Bonds)      0.0177      Max(Angles)    1.62
          Max(Dihed)        3.88      Max(Improp)    0.00
          ---------------------------------------------------------------------

The optimization has not yet converged - more geometry cycles are needed


    ---------------------------------------------------------------------------
                         Redundant Internal Coordinates
                            (Angstroem and degrees)

        Definition                    Value    dE/dq     Step     New-Value
    ----------------------------------------------------------------------------
     1. B(C   1,C   0)                1.5218 -0.011425  0.0155    1.5373   
     2. B(C   4,C   0)                1.5401 -0.008495  0.0123    1.5524   
     3. B(H   5,C   0)                1.0933 -0.004199  0.0061    1.0994   
     4. B(N   7,H   3)                1.0160 -0.003509  0.0043    1.0203   
     5. B(N   7,C   0)                1.4516 -0.008334  0.0098    1.4614   
     6. B(N   7,H   2)                1.0149 -0.003744  0.0046    1.0195   
     7. B(C   8,C   4)                1.5317 -0.008085  0.0113    1.5431   
     8. B(H   9,C   4)                1.0913 -0.006370  0.0093    1.1005   
     9. B(H  10,C   4)                1.0931 -0.006616  0.0097    1.1028   
    10. B(C  11,C   8)                1.5268 -0.008472  0.0117    1.5385   
    11. B(H  12,C  11)                1.0878 -0.008937  0.0128    1.1006   
    12. B(C  13,C   8)                1.5281 -0.008429  0.0117    1.5398   
    13. B(C  13,H   6)                1.0879 -0.009131  0.0131    1.1010   
    14. B(H  14,C  11)                1.0875 -0.008408  0.0120    1.0996   
    15. B(H  15,C  11)                1.0864 -0.009016  0.0129    1.0993   
    16. B(H  16,C   8)                1.0946 -0.003816  0.0056    1.1002   
    17. B(H  17,C  13)                1.0877 -0.008600  0.0123    1.1000   
    18. B(H  18,C  13)                1.0874 -0.008679  0.0124    1.0999   
    19. B(O  19,C   1)                1.3379 -0.022843  0.0177    1.3556   
    20. B(H  20,O  19)                0.9713 -0.003270  0.0034    0.9747   
    21. B(O  21,C   1)                1.2036 -0.031828  0.0151    1.2187   
    22. A(C   4,C   0,N   7)          108.63 -0.001785    0.56    109.19   
    23. A(C   1,C   0,H   5)          108.75  0.000804   -0.40    108.36   
    24. A(H   5,C   0,N   7)          108.64  0.000817   -0.35    108.28   
    25. A(C   4,C   0,H   5)          110.03  0.000941   -0.55    109.48   
    26. A(C   1,C   0,N   7)          111.93  0.000097    0.29    112.22   
    27. A(C   1,C   0,C   4)          108.86 -0.000843    0.43    109.29   
    28. A(C   0,C   1,O  21)          124.33  0.000131    0.01    124.34   
    29. A(C   0,C   1,O  19)          113.09  0.003640   -0.48    112.61   
    30. A(O  19,C   1,O  21)          122.59 -0.003775    0.47    123.06   
    31. A(H   9,C   4,H  10)          107.72  0.001531   -0.56    107.16   
    32. A(C   0,C   4,H  10)          107.99  0.001508    0.02    108.01   
    33. A(C   8,C   4,H   9)          109.64  0.000985   -0.26    109.38   
    34. A(C   0,C   4,H   9)          106.77  0.002250   -0.42    106.35   
    35. A(C   0,C   4,C   8)          114.84 -0.004800    0.89    115.73   
    36. A(C   8,C   4,H  10)          109.62 -0.001035    0.23    109.85   
    37. A(C   0,N   7,H   2)          110.50  0.001237   -0.49    110.00   
    38. A(H   2,N   7,H   3)          107.01  0.001096   -0.87    106.14   
    39. A(C   0,N   7,H   3)          109.17  0.002080   -0.64    108.53   
    40. A(C  13,C   8,H  16)          108.52  0.000798   -0.30    108.23   
    41. A(C   4,C   8,H  16)          109.03  0.000244   -0.27    108.76   
    42. A(C  11,C   8,H  16)          108.48 -0.000010   -0.16    108.32   
    43. A(C  11,C   8,C  13)          109.84 -0.000969    0.42    110.26   
    44. A(C   4,C   8,C  13)          109.48 -0.000823    0.31    109.79   
    45. A(C   4,C   8,C  11)          111.43  0.000786   -0.03    111.40   
    46. A(H  14,C  11,H  15)          108.00  0.000542   -0.08    107.93   
    47. A(H  12,C  11,H  15)          108.50  0.001540   -0.27    108.23   
    48. A(C   8,C  11,H  15)          111.27 -0.001652    0.31    111.58   
    49. A(H  12,C  11,H  14)          108.42  0.000621   -0.14    108.27   
    50. A(C   8,C  11,H  14)          110.21 -0.001544    0.27    110.48   
    51. A(C   8,C  11,H  12)          110.35  0.000589   -0.10    110.25   
    52. A(H   6,C  13,H  18)          108.38  0.001506   -0.25    108.14   
    53. A(C   8,C  13,H  17)          110.88 -0.001052    0.17    111.05   
    54. A(H   6,C  13,H  17)          108.40  0.000868   -0.23    108.18   
    55. A(H   6,C  13,C   8)          110.31 -0.000109    0.01    110.32   
    56. A(H  17,C  13,H  18)          108.30  0.000298   -0.01    108.28   
    57. A(C   8,C  13,H  18)          110.50 -0.001405    0.28    110.78   
    58. A(C   1,O  19,H  20)          110.55  0.010723   -1.62    108.93   
    59. D(O  19,C   1,C   0,H   5)     32.72  0.000138   -1.23     31.49   
    60. D(O  21,C   1,C   0,H   5)   -147.12  0.001687   -3.88   -151.00   
    61. D(O  21,C   1,C   0,C   4)     93.00  0.000572   -3.23     89.77   
    62. D(O  19,C   1,C   0,N   7)    152.75  0.001749   -1.75    151.00   
    63. D(O  19,C   1,C   0,C   4)    -87.16 -0.000977   -0.59    -87.74   
    64. D(C   8,C   4,C   0,C   1)     74.13  0.001344   -1.93     72.20   
    65. D(C   8,C   4,C   0,H   5)    -44.96  0.000319   -1.38    -46.34   
    66. D(H   9,C   4,C   0,H   5)     76.81  0.000143   -1.45     75.36   
    67. D(H   9,C   4,C   0,N   7)    -42.00 -0.000327   -1.03    -43.03   
    68. D(C   8,C   4,C   0,N   7)   -163.76 -0.000151   -0.96   -164.73   
    69. D(H   9,C   4,C   0,C   1)   -164.11  0.001168   -2.00   -166.11   
    70. D(H   2,N   7,C   0,H   5)     58.65 -0.000870    0.59     59.24   
    71. D(H   2,N   7,C   0,C   4)    178.33 -0.000299    0.04    178.37   
    72. D(H   3,N   7,C   0,C   1)     55.97  0.000840   -0.60     55.37   
    73. D(H   2,N   7,C   0,C   1)    -61.45 -0.002471    1.13    -60.32   
    74. D(H   3,N   7,C   0,C   4)    -64.25  0.003012   -1.69    -65.94   
    75. D(C  13,C   8,C   4,H  10)    -44.23 -0.001238   -1.63    -45.85   
    76. D(C  13,C   8,C   4,H   9)     73.83  0.000596   -2.33     71.50   
    77. D(C  13,C   8,C   4,C   0)   -165.98  0.000969   -2.46   -168.44   
    78. D(C  11,C   8,C   4,H  10)   -165.93  0.000025   -2.35   -168.28   
    79. D(C  11,C   8,C   4,H   9)    -47.88  0.001859   -3.06    -50.93   
    80. D(C  11,C   8,C   4,C   0)     72.31  0.002233   -3.18     69.13   
    81. D(H  14,C  11,C   8,H  16)    -61.23  0.000088    0.27    -60.95   
    82. D(H  14,C  11,C   8,C  13)     57.24  0.000489    0.06     57.31   
    83. D(H  14,C  11,C   8,C   4)    178.74 -0.000690    0.73    179.47   
    84. D(H  12,C  11,C   8,H  16)    179.07 -0.000074    0.35    179.41   
    85. D(H  12,C  11,C   8,C  13)    -62.47  0.000326    0.14    -62.33   
    86. D(H  12,C  11,C   8,C   4)     59.03 -0.000852    0.80     59.83   
    87. D(H   6,C  13,C   8,H  16)   -178.92 -0.000254    0.01   -178.91   
    88. D(H   6,C  13,C   8,C  11)     62.64 -0.000156    0.14     62.78   
    89. D(H   6,C  13,C   8,C   4)    -60.02  0.000035   -0.31    -60.33   
    90. D(H  17,C  13,C   8,H  16)    -58.82  0.000078   -0.15    -58.97   
[...]
      px      :     0.002401
      py      :     0.003184

 13 C s       :     3.260381  s :     3.260381
      pz      :     1.035098  p :     3.029027
      px      :     1.026828
      py      :     0.967101
      dz2     :     0.003285  d :     0.029602
      dxz     :     0.006387
      dyz     :     0.008204
      dx2y2   :     0.006574
      dxy     :     0.005151

 14 H s       :     0.886234  s :     0.886234
      pz      :     0.003500  p :     0.011317
      px      :     0.004021
      py      :     0.003796

 15 H s       :     0.869605  s :     0.869605
      pz      :     0.002571  p :     0.011513
      px      :     0.003109
      py      :     0.005832

 16 H s       :     0.890815  s :     0.890815
      pz      :     0.005412  p :     0.011341
      px      :     0.002508
      py      :     0.003422

 17 H s       :     0.883678  s :     0.883678
      pz      :     0.003395  p :     0.011292
      px      :     0.005536
      py      :     0.002361

 18 H s       :     0.885517  s :     0.885517
      pz      :     0.003805  p :     0.011273
      px      :     0.004018
      py      :     0.003450

 19 O s       :     3.844621  s :     3.844621
      pz      :     1.449337  p :     4.593993
      px      :     1.466039
      py      :     1.678618
      dz2     :     0.004593  d :     0.023069
      dxz     :     0.004042
      dyz     :     0.003645
      dx2y2   :     0.006222
      dxy     :     0.004567

 20 H s       :     0.645621  s :     0.645621
      pz      :     0.018165  p :     0.037326
      px      :     0.007059
      py      :     0.012102

 21 O s       :     3.872399  s :     3.872399
      pz      :     1.550895  p :     4.528917
      px      :     1.524441
      py      :     1.453581
      dz2     :     0.004928  d :     0.027311
      dxz     :     0.006928
      dyz     :     0.003247
      dx2y2   :     0.005721
      dxy     :     0.006488



                     *******************************
                     * LOEWDIN POPULATION ANALYSIS *
                     *******************************

----------------------
LOEWDIN ATOMIC CHARGES
----------------------
   0 C :   -0.048726
   1 C :    0.125551
   2 H :    0.126753
   3 H :    0.129571
   4 C :   -0.112532
   5 H :    0.080026
   6 H :    0.068396
   7 N :   -0.249431
   8 C :   -0.072508
   9 H :    0.077556
  10 H :    0.070905
  11 C :   -0.202838
  12 H :    0.067431
  13 C :   -0.197380
  14 H :    0.070043
  15 H :    0.072182
  16 H :    0.065234
  17 H :    0.069362
  18 H :    0.069339
  19 O :   -0.157785
  20 H :    0.182300
  21 O :   -0.233448

-------------------------------
LOEWDIN REDUCED ORBITAL CHARGES
-------------------------------
  0 C s       :     2.890119  s :     2.890119
      pz      :     0.993399  p :     3.033786
      px      :     1.018278
      py      :     1.022109
      dz2     :     0.024377  d :     0.124822
      dxz     :     0.030331
      dyz     :     0.027896
      dx2y2   :     0.025604
      dxy     :     0.016613

  1 C s       :     2.875770  s :     2.875770
      pz      :     0.956080  p :     2.721768
      px      :     0.911919
      py      :     0.853770
      dz2     :     0.055986  d :     0.276911
      dxz     :     0.065407
      dyz     :     0.026634
      dx2y2   :     0.076222
      dxy     :     0.052663

  2 H s       :     0.796331  s :     0.796331
      pz      :     0.021997  p :     0.076916
      px      :     0.013462
      py      :     0.041456

  3 H s       :     0.792607  s :     0.792607
      pz      :     0.028108  p :     0.077822
      px      :     0.034588
      py      :     0.015125

  4 C s       :     2.915460  s :     2.915460
      pz      :     1.071467  p :     3.118471
      px      :     1.052177
      py      :     0.994827
      dz2     :     0.012409  d :     0.078601
      dxz     :     0.016130
      dyz     :     0.017142
      dx2y2   :     0.021545
      dxy     :     0.011375

  5 H s       :     0.880306  s :     0.880306
      pz      :     0.011418  p :     0.039668
      px      :     0.021005
      py      :     0.007245

  6 H s       :     0.893544  s :     0.893544
      pz      :     0.019570  p :     0.038060
      px      :     0.006971
      py      :     0.011520

  7 N s       :     3.225028  s :     3.225028
      pz      :     1.481356  p :     3.967040
      px      :     1.166244
      py      :     1.319439
      dz2     :     0.006421  d :     0.057364
      dxz     :     0.020348
      dyz     :     0.005557
      dx2y2   :     0.017839
      dxy     :     0.007199

  8 C s       :     2.887875  s :     2.887875
      pz      :     1.047244  p :     3.087837
      px      :     1.016855
      py      :     1.023738
      dz2     :     0.016152  d :     0.096796
      dxz     :     0.019523
      dyz     :     0.019832
      dx2y2   :     0.021755
      dxy     :     0.019534

  9 H s       :     0.883461  s :     0.883461
      pz      :     0.021162  p :     0.038983
      px      :     0.007269
      py      :     0.010552

 10 H s       :     0.890559  s :     0.890559
      pz      :     0.010943  p :     0.038536
      px      :     0.021113
      py      :     0.006480

 11 C s       :     2.928360  s :     2.928360
      pz      :     1.077843  p :     3.212751
      px      :     1.044573
      py      :     1.090335
      dz2     :     0.013096  d :     0.061727
      dxz     :     0.012898
      dyz     :     0.009807
      dx2y2   :     0.011504
      dxy     :     0.014423

 12 H s       :     0.894514  s :     0.894514
      pz      :     0.021498  p :     0.038054
      px      :     0.006741
      py      :     0.009816

 13 C s       :     2.929589  s :     2.929589
      pz      :     1.086223  p :     3.205701
      px      :     1.079412
      py      :     1.040066
      dz2     :     0.007074  d :     0.062090
      dxz     :     0.012738
      dyz     :     0.016575
      dx2y2   :     0.014431
      dxy     :     0.011272

 14 H s       :     0.891824  s :     0.891824
      pz      :     0.011564  p :     0.038133
      px      :     0.014137
      py      :     0.012432

 15 H s       :     0.888423  s :     0.888423
      pz      :     0.007002  p :     0.039395
      px      :     0.010019
      py      :     0.022374

 16 H s       :     0.896626  s :     0.896626
      pz      :     0.020225  p :     0.038140
      px      :     0.006994
      py      :     0.010921

 17 H s       :     0.892541  s :     0.892541
      pz      :     0.010615  p :     0.038098
      px      :     0.020820
      py      :     0.006663

 18 H s       :     0.892557  s :     0.892557
      pz      :     0.012617  p :     0.038104
      px      :     0.013899
      py      :     0.011589

 19 O s       :     3.499467  s :     3.499467
      pz      :     1.450670  p :     4.609678
      px      :     1.504611
      py      :     1.654396
      dz2     :     0.009918  d :     0.048641
      dxz     :     0.009591
      dyz     :     0.007655
      dx2y2   :     0.013972
      dxy     :     0.007505

 20 H s       :     0.703969  s :     0.703969
      pz      :     0.057879  p :     0.113731
      px      :     0.019313
      py      :     0.036539

 21 O s       :     3.568906  s :     3.568906
      pz      :     1.574711  p :     4.608896
      px      :     1.576534
      py      :     1.457651
      dz2     :     0.008206  d :     0.055646
      dxz     :     0.016468
      dyz     :     0.007166
      dx2y2   :     0.011016
      dxy     :     0.012790



                      *****************************
                      * MAYER POPULATION ANALYSIS *
                      *****************************

  NA   - Mulliken gross atomic population
  ZA   - Total nuclear charge
  QA   - Mulliken gross atomic charge
  VA   - Mayer's total valence
  BVA  - Mayer's bonded valence
  FA   - Mayer's free valence

  ATOM       NA         ZA         QA         VA         BVA        FA
  0 C      6.0502     6.0000    -0.0502     3.8617     3.8617    -0.0000
  1 C      5.4981     6.0000     0.5019     3.9042     3.9042    -0.0000
  2 H      0.7613     1.0000     0.2387     0.9191     0.9191    -0.0000
  3 H      0.7527     1.0000     0.2473     0.9299     0.9299    -0.0000
  4 C      6.1673     6.0000    -0.1673     3.8569     3.8569    -0.0000
  5 H      0.8752     1.0000     0.1248     0.9530     0.9530    -0.0000
  6 H      0.8951     1.0000     0.1049     0.9584     0.9584    -0.0000
  7 N      7.5544     7.0000    -0.5544     2.8949     2.8949    -0.0000
  8 C      6.0768     6.0000    -0.0768     3.9176     3.9176    -0.0000
  9 H      0.8829     1.0000     0.1171     0.9597     0.9597    -0.0000
 10 H      0.8968     1.0000     0.1032     0.9597     0.9597    -0.0000
 11 C      6.3266     6.0000    -0.3266     3.8755     3.8755    -0.0000
 12 H      0.8977     1.0000     0.1023     0.9584     0.9584    -0.0000
 13 C      6.3190     6.0000    -0.3190     3.8823     3.8823    -0.0000
 14 H      0.8976     1.0000     0.1024     0.9584     0.9584    -0.0000
 15 H      0.8811     1.0000     0.1189     0.9617     0.9617    -0.0000
 16 H      0.9022     1.0000     0.0978     0.9545     0.9545    -0.0000
 17 H      0.8950     1.0000     0.1050     0.9573     0.9573    -0.0000
 18 H      0.8968     1.0000     0.1032     0.9575     0.9575    -0.0000
 19 O      8.4617     8.0000    -0.4617     2.0350     2.0350     0.0000
 20 H      0.6829     1.0000     0.3171     0.9190     0.9190    -0.0000
 21 O      8.4286     8.0000    -0.4286     2.1003     2.1003    -0.0000

  Mayer bond orders larger than 0.100000
B(  0-C ,  1-C ) :   0.8953 B(  0-C ,  4-C ) :   0.9736 B(  0-C ,  5-H ) :   0.9226 
B(  0-C ,  7-N ) :   1.0380 B(  1-C , 19-O ) :   1.0568 B(  1-C , 21-O ) :   1.8980 
B(  2-H ,  7-N ) :   0.9083 B(  3-H ,  7-N ) :   0.8947 B(  4-C ,  8-C ) :   0.9913 
B(  4-C ,  9-H ) :   0.9344 B(  4-C , 10-H ) :   0.9381 B(  6-H , 13-C ) :   0.9583 
B(  8-C , 11-C ) :   1.0038 B(  8-C , 13-C ) :   1.0020 B(  8-C , 16-H ) :   0.9342 
B( 11-C , 12-H ) :   0.9574 B( 11-C , 14-H ) :   0.9585 B( 11-C , 15-H ) :   0.9503 
B( 13-C , 17-H ) :   0.9585 B( 13-C , 18-H ) :   0.9584 B( 19-O , 20-H ) :   0.8519 


-------
TIMINGS
-------

Total SCF time: 0 days 0 hours 0 min 3 sec 

Total time                  ....       3.376 sec
Sum of individual times     ....       2.902 sec  ( 85.9%)

SCF preparation             ....       0.031 sec  (  0.9%)
Fock matrix formation       ....       2.836 sec  ( 84.0%)
  Startup                   ....       0.001 sec  (  0.0% of F)
  Split-RI-J                ....       1.051 sec  ( 37.1% of F)
  XC integration            ....       2.192 sec  ( 77.3% of F)
    Basis function eval.    ....       0.812 sec  ( 37.1% of XC)
    Density eval.           ....       0.502 sec  ( 22.9% of XC)
    XC-Functional eval.     ....       0.409 sec  ( 18.6% of XC)
    XC-Potential eval.      ....       0.409 sec  ( 18.7% of XC)
Diagonalization             ....       0.000 sec  (  0.0%)
Density matrix formation    ....       0.002 sec  (  0.1%)
Total Energy calculation    ....       0.000 sec  (  0.0%)
Population analysis         ....       0.011 sec  (  0.3%)
Orbital Transformation      ....       0.003 sec  (  0.1%)
Orbital Orthonormalization  ....       0.000 sec  (  0.0%)
DIIS solution               ....       0.004 sec  (  0.1%)
SOSCF solution              ....       0.014 sec  (  0.4%)
Finished LeanSCF after   3.4 sec

Maximum memory used throughout the entire LEANSCF-calculation: 22.1 MB



-------------------------------------------------------------------------------
                          DFT DISPERSION CORRECTION                            
-------------------------------------------------------------------------------
Active option DFTDOPT                   ...         2   
Final C6-coefficient scaling factor     ...     1.250
Final VDW-radii scaling factor          ...     1.100
Damping factor alpha                    ...    20.000
-------------------------   ----------------
Dispersion correction           -0.033790599
-------------------------   ----------------


-------------------------   --------------------
FINAL SINGLE POINT ENERGY      -441.410280392187
-------------------------   --------------------

                                *** OPTIMIZATION RUN DONE ***


------------------------------------------------------------------------------
                              ORCA PROPERTY CALCULATIONS
------------------------------------------------------------------------------

GBWName                                 ... 3.gbw
Number of atoms                         ...     22
Number of basis functions               ...    191
Max core memory                         ...   4096 MB

Electric properties:
Dipole moment                           ... YES
Quadrupole moment                       ...  NO
Static polarizability (Dipole/Dipole)   ...  NO
Static polarizability (Dipole/Quad.)    ...  NO
Static polarizability (Quad./Quad.)     ...  NO
Static polarizability (Velocity)        ...  NO
Static hyperpolarizability              ...  NO

Atomic electric properties:
Dipole moment                           ...  NO
Quadrupole moment                       ...  NO
Static polarizability                   ...  NO

Choice of electric origin               ... Center of mass
Position of electric origin             ...   -17.810565    10.813723    -3.280867

General magnetic properties:
Magnetizability                         ...  NO

EPR properties:
g-Tensor (aka g-matrix)                 ...  NO
Zero-Field splitting spin-orbit         ...  NO
Zero-field splitting spin-spin          ...  NO
Hyperfine couplings                     ...  NO (   0 nuclei)
Quadrupole couplings                    ...  NO (   0 nuclei)
Contact density                         ...  NO (   0 nuclei)

NMR properties:
Chemical shifts                         ...  NO (   0 nuclei)
Spin-rotation constants                 ...  NO (   0 nuclei)
Spin-spin couplings                     ...  NO (   0 nuclei,    0 pairs)

Choice of magnetic origin               ... GIAO
Position of magnetic origin             ...     0.000000     0.000000     0.000000

Properties with geometric perturbations:
SCF Hessian                             ...  NO
IR spectrum                             ...  NO
VCD spectrum                            ...  NO
X-ray spectroscopy properties:
SCF XES/XAS/RIXS spectra                ...  NO

SCF SOC stabilization energy            ...  NO
Diagonal Born-Oppenheimer correction    ...  NO

-------------
DIPOLE MOMENT
-------------

Method             : SCF
Type of density    : Electron Density
Multiplicity       :   1
Irrep              :   0
Energy             :  -441.3764897933724001 Eh
Basis              : AO
                                X                 Y                 Z
Electronic contribution:      1.753165162      11.497947575       2.540109421
Nuclear contribution   :     -2.266588615     -11.419632573      -2.338809934
                        -----------------------------------------
Total Dipole Moment    :     -0.513423452       0.078315002       0.201299487
                        -----------------------------------------
Magnitude (a.u.)       :      0.557008406
Magnitude (Debye)      :      1.415802853



--------------------
Rotational spectrum 
--------------------
 
Rotational constants in cm-1:             0.072778             0.034569             0.030409 
Rotational constants in MHz :          2181.821003          1036.345988           911.645255 

Dipole components along the rotational axes: 
x,y,z [a.u.] :    -0.058091     0.519319    -0.192852 
x,y,z [Debye]:    -0.147657     1.320003    -0.490191 

 

Dipole moment calculation done in   0.0 sec 

Maximum memory used throughout the entire PROP-calculation: 12.4 MB

--------------------------------
SUGGESTED CITATIONS FOR THIS RUN
--------------------------------

Below you find a list of papers that are relevant to this ORCA run
We neither can nor want to force you to cite these papers, but we appreciate if you do
You receive ORCA, which is the product of decades of hard work by many enthusiastic individuals, for free
The only thing we kindly ask in return is that you cite our papers,
We deeply appreciate it, if you show your appreciation for ORCA by not just citing the generic ORCA reference.

Please note that relegating all ORCA citations to the supporting information does *not* help us.
SI sections are not indexed - citations you put there will not count into any citation statistics
But we need these citations in order to attract the funding resources that allow us to do what we are doing

Therefore, if you are a happy ORCA user, please consider citing a few of the papers listed below in the main body of your paper

In addition to the list printed below, the program has created the file 3.bibtex that contains the list in bibtex format
You can import this file easily into all common literature databanks and citation aid programs


List of essential papers. We consider these as the minimum necessary citations

  1. Neese, F.
     Software update: the ORCA program system, version 6.0
     WIRES Comput. Molec. Sci. 2025 15(1), e70019
     doi.org/10.1002/wcms.7019

List of papers to cite with high priority. The work reported in these papers was absolutely
necessary for this run to complete.
Our perspective: the developers of density functionals and basis sets usually get cited in chemistry papers
Good! But without the algorithms to do something with them, the functionals or basis sets would not do anything.
Hence, in our opinion, the algorithm design and method developments papers are equally worthy of getting cited

  1. Neese, F.
     An improvement of the resolution of the identity approximation for the formation of the Coulomb matrix
     J. Comp. Chem. 2003 24(14), 1740-1747
     doi.org/10.1002/jcc.10318
  2. Grimme, S.
     Semiempirical GGA-type density functional constructed with a long-range dispersion correction
     J.Comput.Chem. 2006 27(15), 1787-1799
     doi.org/10.1002/jcc.20495
  3. Neese, F.
     The SHARK Integral Generation and Digestion System
     J. Comp. Chem. 2022 44(3), 381
     doi.org/10.1002/jcc.26942

List of suggested additional citations. These are papers that are important in the 'surrounding' of 
of this run, or papers that preceded the highly important papers. If you like your results we are grateful for a citation.

  1. Neese, F.
     The ORCA program system
     WIRES Comput. Molec. Sci. 2012 2(1), 73-78
     doi.org/10.1002/wcms.81
  2. Neese, F.
     Software update: the ORCA program system, version 4.0
     WIRES Comput. Molec. Sci. 2018 8(1), 1-6
     doi.org/10.1002/wcms.1327
  3. Neese, F.; Wennmohs, F.; Becker, U.; Riplinger, C.
     The ORCA quantum chemistry program package
     J. Chem. Phys. 2020 152(22), 224108
     doi.org/10.1063/5.0004608
  4. Neese, F.
     Software update: The ORCA program system—Version 5.0
     WIRES Comput. Molec. Sci. 2022 12(1), e1606
     doi.org/10.1002/wcms.1606

List of optional additional citations

  1. Neese, F.
     Approximate second-order SCF convergence for spin unrestricted wavefunctions
     Chem. Phys. Lett. 2000 325(1-3), 93-98
     doi.org/10.1016/s0009-2614(00)00662-x

Timings for individual modules:

Sum of individual times          ...      107.203 sec (=   1.787 min)
Startup calculation              ...        5.747 sec (=   0.096 min)   5.4 %
SCF iterations                   ...       61.989 sec (=   1.033 min)  57.8 %
Property calculations            ...        0.036 sec (=   0.001 min)   0.0 %
SCF Gradient evaluation          ...       39.410 sec (=   0.657 min)  36.8 %
Geometry relaxation              ...        0.020 sec (=   0.000 min)   0.0 %
                             ****ORCA TERMINATED NORMALLY****
TOTAL RUN TIME: 0 days 0 hours 1 minutes 47 seconds 483 msec
