
                                 *****************
                                 * O   R   C   A *
                                 *****************

                                            #,                                       
                                            ###                                      
                                            ####                                     
                                            #####                                    
                                            ######                                   
                                           ########,                                 
                                     ,,################,,,,,                         
                               ,,#################################,,                 
                          ,,##########################################,,             
                       ,#########################################, ''#####,          
                    ,#############################################,,   '####,        
                  ,##################################################,,,,####,       
                ,###########''''           ''''###############################       
              ,#####''   ,,,,##########,,,,          '''####'''          '####       
            ,##' ,,,,###########################,,,                        '##       
           ' ,,###''''                  '''############,,,                           
         ,,##''                                '''############,,,,        ,,,,,,###''
      ,#''                                            '''#######################'''  
     '                                                          ''''####''''         
             ,#######,   #######,   ,#######,      ##                                
            ,#'     '#,  ##    ##  ,#'     '#,    #''#        ,####,    ,#,          
            ##       ##  ##   ,#'  ##            #'  '#       #'       ,# #          
            ##       ##  #######   ##           ,######,      #####,      #          
            '#,     ,#'  ##    ##  '#,     ,#' ,#      #,     #,   #      #          
             '#######'   ##     ##  '#######'  #'      '#     '####' #    #          



                #########################################################
                #                        -***-                          #
                #          Department of theory and spectroscopy        #
                #                                                       #
                #                      Frank Neese                      #
                #                                                       #
                #     Directorship, Architecture, Infrastructure        #
                #                    SHARK, DRIVERS                     #
                #        Core code/Algorithms in most modules           #
                #                                                       #
                #        Max Planck Institute fuer Kohlenforschung      #
                #                Kaiser Wilhelm Platz 1                 #
                #                 D-45470 Muelheim/Ruhr                 #
                #                      Germany                          #
                #                                                       #
                #                  All rights reserved                  #
                #                        -***-                          #
                #########################################################


                         Program Version 6.1.0  -  RELEASE   -
                                (GIT: $679e74b$)
                          ($2025-06-10 18:02:51 +0200$)


 With contributions from (in alphabetic order):
[Max-Planck-Institut fuer Kohlenforschung]                               
  Daniel Aravena         : Magnetic Suceptibility                        
  Michael Atanasov       : Ab Initio Ligand Field Theory (pilot matlab implementation)
  Alexander A. Auer      : GIAO ZORA, VPT2 properties, NMR spectrum      
  Ute Becker             : All parallelization in ORCA, NUMFREQ, NUMCALC 
  Giovanni Bistoni       : ED, misc. LED, open-shell LED, HFLD           
  Dmytro Bykov           : pre 5.0 version of the SCF Hessian            
  Marcos Casanova-Páez   : Triplet and SCS-CIS(D). UHF-(DLPNO)-IP/EA/STEOM-CCSD. UHF-CVS-IP/STEOM-CCSD   
  Vijay G. Chilkuri      : MRCI spin determinant printing, contributions to CSF-ICE 
  Pauline Colinet        : FMM embedding                                 
  Dipayan Datta          : RHF DLPNO-CCSD density                        
  Achintya Kumar Dutta   : EOM-CC, STEOM-CC                              
  Nicolas Foglia         : Exact transition moments, OPA infrastructure, MCD improvements    
  Dmitry Ganyushin       : Spin-Orbit,Spin-Spin,Magnetic field MRCI      
  Miquel Garcia-Rates    : C-PCM and meta-GGA Hessian, CCSD/C-PCM, Gaussian charge scheme 
  Tiago L. C. Gouveia    : GS-ROHF, GS-ROCIS                             
  Yang Guo               : DLPNO-NEVPT2, F12-NEVPT2, CIM, IAO-localization        
  Andreas Hansen         : Spin unrestricted coupled pair/coupled cluster methods 
  Ingolf Harden          : AUTO-CI MPn and infrastructure                
  Benjamin Helmich-Paris : MC-RPA, TRAH-(SCF,CASSCF), AVAS, COSX integrals, SCF dyn. polar., MC-PDFT, srDFT 
  Lee Huntington         : MR-EOM, pCC                                   
  Robert Izsak           : Overlap fitted RIJCOSX, COSX-SCS-MP3, EOM     
  Riya Kayal             : Wick's Theorem for AUTO-CI, AUTO-CI UHF-CCSDT 
  Emily Kempfer          : AUTO-CI RHF CISDT and CCSDT, approximate NEVPT4
  Christian Kollmar      : KDIIS, OOCD, Brueckner-CCSD(T), CCSD density, CASPT2, CASPT2-K, improved NEVPT2 
  Axel Koslowski         : Symmetry handling                             
  Simone Kossmann        : meta-GGA functionals, TD-DFT gradient, OOMP2, (MP2 Hessian; deprecated post 5.0) 
  Lucas Lang             : DCDCAS, Hyperfine gauge corrections, ICE-SOC+SSC
  Marvin Lechner         : AUTO-CI (C++ implementation), FIC-MRCC        
  Spencer Leger          : CASSCF response                               
  Dagmar Lenk            : GEPOL surface, SMD, ORCA-2-JSON               
  Dimitrios Liakos       : Extrapolation schemes; Compound Job, Property file
  Dimitrios Manganas     : Further ROCIS development; embedding schemes. LFT, Crystal Embedding 
  Dimitrios Pantazis     : SARC Basis sets                               
  Anastasios Papadopoulos: AUTO-CI, single reference methods and gradients 
  Taras Petrenko         : pre 6.0 DFT Hessian and TD-DFT gradient,  ECA, NRVS 
  Petra Pikulova         : Analytic Raman intensities                    
  Peter Pinski           : DLPNO-MP2, DLPNO-MP2 Gradient                 
  Shashank Vittal Rao    : ES-AILFT, MagRelax                            
  Christoph Reimann      : Effective Core Potentials                     
  Marius Retegan         : Local ZFS, SOC                                
  Christoph Riplinger    : Optimizer, TS searches, QM/MM, DLPNO-CCSD(T), (RO)-DLPNO pert. Triples 
  Michael Roemelt        : Original ROCIS implementation, recursive CI coupling coefficients
  Masaaki Saitow         : Open-shell DLPNO-CCSD energy and density      
  Barbara Sandhoefer     : DKH picture change effects                    
  Yorick L. A. Schmerwitz: GMF and freeze-and-release deltaSCF, NEB S-IDPP initial path                    
  Kantharuban Sivalingam : CASSCF convergence/infrastructure, NEVPT2, NEVPT3, NEVPT4(SD), FIC-MRCI and CEPA variants
  Bernardo de Souza      : ESD, SOC TD-DFT                               
  Georgi L. Stoychev     : AutoAux, RI-MP2 NMR, DLPNO-MP2 response, X2C  
  Van Anh Tran           : RI-MP2 g-tensors                              
  Willem Van den Heuvel  : Paramagnetic NMR                              
  Zikuan Wang            : NOTCH, Electric field optimization            
  Frank Wennmohs         : Technical directorship and infrastructure     
  Hang Xu                : AUTO-CI-Response properties                   
                                                                         
[FACCTs GmbH]                                                            
  Markus Bursch, Nicolas Foglia, Miquel Garcia-Rates, Ingolf Harden, Hagen Neugebauer, Anastasios Papadopoulos, 
  Christoph Riplinger, Bernardo de Souza, Georgi L. Stoychev                                                    
                                                                 
  APM, various basis sets, CI-OPT, improved COSX, DLPNO-Multilevel,           
  DOCKER, DRACO, updates on ESD, Fragmentator, GOAT, IRC, LR-CPCM, L-BFGS, MBIS, meta-GGA TD-DFT gradient, ML-optimized integration grids, 
  MM, NACMEs, nearIR, NEB, NEB-TS, NL-DFT gradient (VV10), 2- and 3-layer-ONIOM, interface openCOSMO-RS, QMMM,   
  Crystal-QMMM, RESP, rigid body optimization, SF, symmetry and pop. for TD-DFT, various functionals, SOLVATOR                                   
                                                                         
[Other institutions]                                                     
  V. Asgeirsson          : NEB                                           
  Christoph Bannwarth    : sTDA-DFT, sTD-DFT, PBEh-3c, B97-3c, D3        
  Giovanni Bistoni       : ETS/NOCV, ADLD/ADEX, COVALED                  
  Martin Brehm           : Molecular dynamics                            
  Ronald Cardenas        : ETS/NOCV                                      
  Martina Colucci        : COVALED                                       
  Sebastian Ehlert       : rSCAN, r2SCAN, r2SCAN-3c, D4, dhf basis sets  
  Marvin Friede          : D4 for Fr, Ra, Ac-Lr                          
  Lars Goerigk           : TD-DFT with DH, B97 family of functionals     
  Stefan Grimme          : VdW corrections, initial TS optimization, DFT functionals, gCP, sTDA/sTD-DF 
  Waldemar Hujo          : DFT-NL                                        
  H. Jonsson             : NEB                                           
  Holger Kruse           : gCP                                           
  Marcel Mueller         : wB97X-3c, vDZP basis set                      
  Hagen Neugebauer       : wr2SCAN, Native XTB                           
  Gianluca Regni         : ADLD/ADEX                                     
  Tobias Risthaus        : pre 6.0 range-separated hybrid DFT and stability analysis
  Lukas Wittmann         : regularized MP2, r2SCAN double-hybrids, wr2SCAN        
                                                                         
We gratefully acknowledge several colleagues who have allowed us to      
interface, adapt or use parts of their codes:                            
  Ed Valeev, F. Pavosevic, A. Kumar             : LibInt (2-el integral package), F12 methods 
  Garnet Chan, S. Sharma, J. Yang, R. Olivares  : DMRG                   
  Ulf Ekstrom                                   : XCFun DFT Library      
  Mihaly Kallay                                 : mrcc  (arbitrary order and MRCC methods)
  Frank Weinhold                                : gennbo (NPA and NBO analysis)           
  Simon Mueller                                 : openCOSMO-RS                            
  Christopher J. Cramer and Donald G. Truhlar   : smd solvation model                     
  S Lehtola, MJT Oliveira, MAL Marques          : LibXC Library                           
  Liviu Ungur et al                             : ANISO software                          


 Your calculation uses the libint2 library for the computation of 2-el integrals
 For citations please refer to: http://libint.valeyev.net

 Your ORCA version has been built with support for libXC version: 7.0.0
 For citations please refer to: https://libxc.gitlab.io

 This ORCA versions uses:
   CBLAS   interface :  Fast vector & matrix operations
   LAPACKE interface :  Fast linear algebra routines
   SCALAPACK package :  Parallel linear algebra routines
   Shared memory     :  Shared parallel matrices
   BLAS/LAPACK       :  OpenBLAS 0.3.29  USE64BITINT DYNAMIC_ARCH NO_AFFINITY Haswell SINGLE_THREADED
        Core in use  :  Haswell
   Copyright (c) 2011-2014, The OpenBLAS Project


  ***********************************
  * Starting time: Thu Aug 14 00:58:09 2025
  * Host name:     CHEMLAB02
  * Process ID:    1542900
  * Working dir.:  /home/vivek/mm-project/vivek/MP2/f/4
  ***********************************



***************************************
The coordinates will be read from file: /home/vivek/mm-project/vivek/xtb-goat/f/F_CONF/4.xyz
***************************************


================================================================================

----- Orbital basis set information -----
Your calculation utilizes the basis: 6-31G**
   H-He, Li-Ne : W. J. Hehre, R. Ditchfield and J.A. Pople, J. Chem. Phys. 56, 2257 (1972).
                 Note: He and Ne are unpublished basis sets taken from the Gaussian program.
                 Note: Li and B from J. D. Dill and J. A. Pople, J. Chem. Phys. 62, 2921 (1975).
   Na - Ar     : M. M. Francl, W. J. Pietro, W. J. Hehre, J. S. Binkley, M. S. Gordon, 
                 D. J. DeFrees and J. A. Pople, J. Chem. Phys. 77, 3654 (1982).
   K - Zn      : V. A. Rassolov, J. A. Pople, M. A. Ratner, and T. L. Windus, J. Chem. Phys. 109, 1223 (1998).

================================================================================
                                        WARNINGS
                       Please study these warnings very carefully!
================================================================================


WARNING: No MP2 level density has been requested!
         To calculate MP2 level properties use
         %mp2 Density relaxed end
         or
         %mp2 Density unrelaxed end

WARNING: Post HF methods need fully converged wavefunctions
  ===> : Setting SCFConvForced true
         You can overwrite this default with %scf ConvForced false 


================================================================================
                                       INPUT FILE
================================================================================
NAME = 4.inp
|  1> ! MP2 6-31G** 
|  2> 
|  3> * xyzfile 0 1 /home/vivek/mm-project/vivek/xtb-goat/f/F_CONF/4.xyz
|  4> 
|  5>                          ****END OF INPUT****
================================================================================

                       ****************************
                       * Single Point Calculation *
                       ****************************

---------------------------------
CARTESIAN COORDINATES (ANGSTROEM)
---------------------------------
  C     -6.258671    0.087167   -0.437842
  C     -5.233347    0.133866   -1.366584
  C     -5.235072    1.888827    0.768887
  H     -7.055393    0.936809    1.357676
  H     -5.238667    2.575652    1.603404
  C     -4.211208    1.055793   -1.226704
  C     -3.069947    2.910876    0.023722
  H     -5.229021   -0.549670   -2.203177
  C     -4.201842    1.943713   -0.158410
  H     -7.056617   -0.632378   -0.546731
  C     -6.257399    0.967849    0.630312
  H     -3.410719    1.086794   -1.952709
  C     -2.032670    2.367474    1.047701
  H     -2.556302    3.079091   -0.925919
  H     -3.443215    3.867691    0.397273
  C     -1.540637    1.036349    0.510128
  H     -1.844301   -0.835716    0.700619
  N     -0.891368    3.233318    1.250479
  O     -2.147971    0.001004    1.088779
  H     -0.278656    3.185540    0.442231
  O     -0.722486    0.915366   -0.361486
  H     -2.529787    2.197169    2.008393
  H     -1.186204    4.195257    1.375628

----------------------------
CARTESIAN COORDINATES (A.U.)
----------------------------
  NO LB      ZA    FRAG     MASS         X           Y           Z
   0 C     6.0000    0    12.011  -11.827173    0.164722   -0.827402
   1 C     6.0000    0    12.011   -9.889593    0.252970   -2.582469
   2 C     6.0000    0    12.011   -9.892853    3.569365    1.452986
   3 H     1.0000    0     1.008  -13.332761    1.770312    2.565636
   4 H     1.0000    0     1.008   -9.899647    4.867277    3.029995
   5 C     6.0000    0    12.011   -7.958029    1.995160   -2.318135
   6 C     6.0000    0    12.011   -5.801359    5.500758    0.044828
   7 H     1.0000    0     1.008   -9.881418   -1.038725   -4.163402
   8 C     6.0000    0    12.011   -7.940330    3.673085   -0.299352
   9 H     1.0000    0     1.008  -13.335073   -1.195021   -1.033171
  10 C     6.0000    0    12.011  -11.824771    1.828970    1.191117
  11 H     1.0000    0     1.008   -6.445325    2.053742   -3.690086
  12 C     6.0000    0    12.011   -3.841190    4.473877    1.979869
  13 H     1.0000    0     1.008   -4.830711    5.818639   -1.749734
  14 H     1.0000    0     1.008   -6.506734    7.308877    0.750737
  15 C     6.0000    0    12.011   -2.911382    1.958416    0.964002
  16 H     1.0000    0     1.008   -3.485224   -1.579274    1.323977
  17 N     7.0000    0    14.007   -1.684442    6.110085    2.363064
  18 O     8.0000    0    15.999   -4.059078    0.001897    2.057493
  19 H     1.0000    0     1.008   -0.526584    6.019798    0.835695
  20 O     8.0000    0    15.999   -1.365300    1.729791   -0.683110
  21 H     1.0000    0     1.008   -4.780605    4.152048    3.795312
  22 H     1.0000    0     1.008   -2.241600    7.927888    2.599561

--------------------------------
INTERNAL COORDINATES (ANGSTROEM)
--------------------------------
 C      0   0   0     0.000000000000     0.00000000     0.00000000
 C      1   0   0     1.384207171272     0.00000000     0.00000000
 C      1   2   0     2.397900507835    89.77706079     0.00000000
 H      3   1   2     2.136955534866    55.96545680   179.94152149
 H      3   1   2     1.080815171758   149.83747364   179.76937415
 C      2   1   3     1.383577220536   120.12394315     0.03612348
 C      3   1   2     2.507513082505   121.68714915   358.64264853
 H      2   1   3     1.080336907698   120.07919588   180.04459045
 C      6   2   1     1.389150964990   120.57322808   359.90361026
 H      1   2   3     1.079963037368   120.14080761   179.96732355
 C      4   3   1     1.080192676673    34.14475330     0.00000000
 H      6   2   1     1.081122837215   119.88194494   179.81038156
 C      7   3   1     1.555558632522   103.75458523   253.94693969
 H      7   3   1     1.092678242055   136.62811454    30.62218180
 H      7   3   1     1.092869920824    87.72843065   145.99372535
 C     13   7   3     1.517555506764   106.82395587    87.46557458
 H     16  13   7     1.906075928942   140.75460062   262.55169283
 N     13   7   3     1.446849933183   114.15501078   207.50727527
 O     17  16  13     0.971073616565    40.84323197   356.36549887
 H     18  13   7     1.015364180725   109.65056376   286.41144663
 O     16  13   7     1.201549086475   124.47568749    78.88411456
 H     13   7   3     1.095014485002   109.21589060   330.00444133
 H     18  13   7     1.013863007301   110.83601403    46.25483089

---------------------------
INTERNAL COORDINATES (A.U.)
---------------------------
 C      0   0   0     0.000000000000     0.00000000     0.00000000
 C      1   0   0     2.615772466314     0.00000000     0.00000000
 C      1   2   0     4.531375256199    89.77706079     0.00000000
 H      3   1   2     4.038260721264    55.96545680   179.94152149
 H      3   1   2     2.042444676010   149.83747364   179.76937415
 C      2   1   3     2.614582031946   120.12394315     0.03612348
 C      3   1   2     4.738513003159   121.68714915   358.64264853
 H      2   1   3     2.041540887916   120.07919588   180.04459045
 C      6   2   1     2.625114882504   120.57322808   359.90361026
 H      1   2   3     2.040834375384   120.14080761   179.96732355
 C      4   3   1     2.041268330779    34.14475330     0.00000000
 H      6   2   1     2.043026079464   119.88194494   179.81038156
 C      7   3   1     2.939579800723   103.75458523   253.94693969
 H      7   3   1     2.064862629979   136.62811454    30.62218180
 H      7   3   1     2.065224850358    87.72843065   145.99372535
 C     13   7   3     2.867764300808   106.82395587    87.46557458
 H     16  13   7     3.601961496159   140.75460062   262.55169283
 N     13   7   3     2.734150130598   114.15501078   207.50727527
 O     17  16  13     1.835063191185    40.84323197   356.36549887
 H     18  13   7     1.918760227763   109.65056376   286.41144663
 O     16  13   7     2.270598709901   124.47568749    78.88411456
 H     13   7   3     2.069277489330   109.21589060   330.00444133
 H     18  13   7     1.915923421113   110.83601403    46.25483089

---------------------
BASIS SET INFORMATION
---------------------
There are 4 groups of distinct atoms

 Group   1 Type C   : 10s4p1d contracted to 3s2p1d pattern {631/31/1}
 Group   2 Type H   : 4s1p contracted to 2s1p pattern {31/1}
 Group   3 Type N   : 10s4p1d contracted to 3s2p1d pattern {631/31/1}
 Group   4 Type O   : 10s4p1d contracted to 3s2p1d pattern {631/31/1}

Atom   0C    basis set group =>   1
Atom   1C    basis set group =>   1
Atom   2C    basis set group =>   1
Atom   3H    basis set group =>   2
Atom   4H    basis set group =>   2
Atom   5C    basis set group =>   1
Atom   6C    basis set group =>   1
Atom   7H    basis set group =>   2
Atom   8C    basis set group =>   1
Atom   9H    basis set group =>   2
Atom  10C    basis set group =>   1
Atom  11H    basis set group =>   2
Atom  12C    basis set group =>   1
Atom  13H    basis set group =>   2
Atom  14H    basis set group =>   2
Atom  15C    basis set group =>   1
Atom  16H    basis set group =>   2
Atom  17N    basis set group =>   3
Atom  18O    basis set group =>   4
Atom  19H    basis set group =>   2
Atom  20O    basis set group =>   4
Atom  21H    basis set group =>   2
Atom  22H    basis set group =>   2
------------------------------------------------------------------------------
                             ORCA STARTUP CALCULATIONS
------------------------------------------------------------------------------
------------------------------------------------------------------------------
                   ___                                                        
                  /   \      - P O W E R E D   B Y -                         
                 /     \                                                     
                 |  |  |   _    _      __       _____    __    __             
                 |  |  |  | |  | |    /  \     |  _  \  |  |  /  |          
                  \  \/   | |  | |   /    \    | | | |  |  | /  /          
                 / \  \   | |__| |  /  /\  \   | |_| |  |  |/  /          
                |  |  |   |  __  | /  /__\  \  |    /   |      \           
                |  |  |   | |  | | |   __   |  |    \   |  |\   \          
                \     /   | |  | | |  |  |  |  | |\  \  |  | \   \       
                 \___/    |_|  |_| |__|  |__|  |_| \__\ |__|  \__/        
                                                                              
                      - O R C A' S   B I G   F R I E N D -                    
                                      &                                       
                       - I N T E G R A L  F E E D E R -                       
                                                                              
 v1 FN, 2020, v2 2021, v3 2022-2024                                           
------------------------------------------------------------------------------


----------------------
SHARK INTEGRAL PACKAGE
----------------------

Number of atoms                             ...     23
Number of basis functions                   ...    223
Number of shells                            ...    105
Maximum angular momentum                    ...      2
Integral batch strategy                     ... SHARK/LIBINT Hybrid
RI-J (if used) integral strategy            ... SPLIT-RIJ (Revised 2003 algorithm where possible)
Printlevel                                  ...      1
Contraction scheme used                     ... SEGMENTED contraction
Prescreening option                         ... SCHWARTZ
   Thresh                                   ... 1.000e-10
   Tcut                                     ... 1.000e-11
   Tpresel                                  ... 1.000e-11 
Coulomb Range Separation                    ... NOT USED
Exchange Range Separation                   ... NOT USED
Multipole approximations                    ... NOT USED
Finite Nucleus Model                        ... NOT USED
CABS basis                                  ... NOT available
Auxiliary Coulomb fitting basis             ... NOT available
Auxiliary J/K fitting basis                 ... NOT available
Auxiliary Correlation fitting basis         ... NOT available
Auxiliary 'external' fitting basis          ... NOT available

Checking pre-screening integrals            ... done (  0.0 sec) Dimension = 105
   => SHARK Basis and OBASIS are compatible. Storing Pre-screening
Shell pair information
Shell pair cut-off parameter TPreSel        ...   1.0e-11
Total number of shell pairs                 ...      5565
Shell pairs after pre-screening             ...      4779
Total number of primitive shell pairs       ...     28015
Primitive shell pairs kept                  ...     15112
          la=0 lb=0:   1463 shell pairs
          la=1 lb=0:   1739 shell pairs
          la=1 lb=1:    548 shell pairs
          la=2 lb=0:    594 shell pairs
          la=2 lb=1:    365 shell pairs
          la=2 lb=2:     70 shell pairs

Checking whether 4 symmetric matrices of dimension 223 fit in memory
:Max Core in MB      =   4096.00
 MB in use           =      7.65
 MB left             =   4088.35
 MB needed           =      0.76
 Data fit in memory  = YES
Calculating Nuclear repulsion               ... done (  0.0 sec) ENN=    695.774170936648 Eh

Diagonalization of the overlap matrix:
Smallest eigenvalue                        ... 4.374e-04
Time for diagonalization                   ...    0.003 sec
Threshold for overlap eigenvalues          ... 1.000e-07
Number of eigenvalues below threshold      ... 0
Time for construction of square roots      ...    0.001 sec
Total time needed                          ...    0.004 sec

-------------------
DFT GRID GENERATION
-------------------

General Integration Accuracy     IntAcc      ... 4.388
Radial Grid Type                 RadialGrid  ... OptM3 with GC (2021)
Angular Grid (max. ang.)         AngularGrid ... 4 (Lebedev-302)
Angular grid pruning method      GridPruning ... 4 (adaptive)
Weight generation scheme         WeightScheme... mBecke (2022)
Basis function cutoff            BFCut       ... 1.0000e-10
Integration weight cutoff        WCut        ... 1.0000e-14
Partially contracted basis set               ... off
Rotationally invariant grid construction     ... off
Angular grids for H and He will be reduced by one unit

Total number of grid points                  ...   107287
Total number of batches                      ...     1690
Average number of points per batch           ...       63
Average number of grid points per atom       ...     4665
Grids setup in   0.5 sec
Initializing property integral containers    ... done (  0.0 sec)

SHARK setup successfully completed in   0.6 seconds

Maximum memory used throughout the entire STARTUP-calculation: 43.4 MB
-------------------------------------------------------------------------------
                                 ORCA GUESS
                   Start orbitals & Density for SCF / CASSCF
-------------------------------------------------------------------------------

------------
SCF SETTINGS
------------
Hamiltonian:
 Ab initio Hamiltonian  Method          .... Hartree-Fock(GTOs)


General Settings:
 Integral files         IntName         .... 4
 Hartree-Fock type      HFTyp           .... RHF
 Total Charge           Charge          ....    0
 Multiplicity           Mult            ....    1
 Number of Electrons    NEL             ....   88
 Basis Dimension        Dim             ....  223
 Nuclear Repulsion      ENuc            ....    695.7741709366 Eh

Convergence Acceleration:
 AO-DIIS                CNVDIIS         .... on
   Start iteration      DIISMaxIt       ....    12
   Startup error        DIISStart       ....  0.200000
   # of expansion vecs  DIISMaxEq       ....     5
   Bias factor          DIISBfac        ....   1.050
   Max. coefficient     DIISMaxC        ....  10.000
 MO-DIIS                CNVKDIIS        .... off
 Trust-Rad. Augm. Hess. CNVTRAH         .... auto
   Auto Start mean grad. ratio tolernc. ....  1.125000
   Auto Start start iteration           ....    50
   Auto Start num. interpolation iter.  ....    10
   Max. Number of Micro iterations      ....    24
   Max. Number of Macro iterations      .... Maxiter - #DIIS iter
   Number of Davidson start vectors     ....     2
   Converg. threshold    (grad. norm)   ....   5.000e-05
   Grad. Scal. Fac. for Micro threshold ....   0.100
   Minimum threshold for Micro iter.    ....   1.000e-02
   NR start threshold (gradient norm)   ....   1.000e-04
   Initial trust radius                 ....   0.400
   Minimum AH scaling param. (alpha)    ....   1.000
   Maximum AH scaling param. (alpha)    .... 1000.000
   Quad. conv. algorithm                .... NR
   White noise on init. David. guess    .... on
   Maximum white noise                  ....   0.010
   Pseudo random numbers                .... off
   Inactive MOs                         .... canonical
   Orbital update algorithm             .... Taylor
   Preconditioner                       .... Diag
   Full preconditioner red. dimension   ....   250
 SOSCF                 CNVSOSCF           .... on
   Start iteration     SOSCFMaxIt         ....   150
   Startup grad/error  SOSCFStart         ....  0.003300
   Hessian update      SOSCFHessUp        .... L-BFGS
   Autom. constraints  SOSCFAutoConstrain .... off
 Level Shifting         CNVShift        .... on
   Level shift para.    LevelShift      ....    0.2500
   Turn off err/grad.   ShiftErr        ....    0.0010
 Zerner damping         CNVZerner       .... off
 Static damping         CNVDamp         .... on
   Fraction old density DampFac         ....    0.7000
   Max. Damping (<1)    DampMax         ....    0.9800
   Min. Damping (>=0)   DampMin         ....    0.0000
   Turn off err/grad.   DampErr         ....    0.1000

SCF Procedure:
 Maximum # iterations   MaxIter         ....   125
 SCF integral mode      SCFMode         .... Direct
   Integral package                     .... SHARK and LIBINT hybrid scheme
 Reset frequency        DirectResetFreq ....    20
 Integral Threshold     Thresh          ....  1.000e-10 Eh
 Primitive CutOff       TCut            ....  1.000e-11 Eh

Convergence Tolerance:
 Convergence Check Mode ConvCheckMode   .... Total+1el-Energy
 Convergence forced     ConvForced      .... 1
 Energy Change          TolE            ....  1.000e-06 Eh
 1-El. energy change                    ....  1.000e-03 Eh
 Orbital Gradient       TolG            ....  5.000e-05
 Orbital Rotation angle TolX            ....  5.000e-05
 DIIS Error             TolErr          ....  1.000e-06

------------------------------
INITIAL GUESS: MODEL POTENTIAL
------------------------------
Loading Hartree-Fock densities                     ... done
Calculating cut-offs                               ... done
Initializing the effective Hamiltonian             ... done
Setting up the integral package (SHARK)            ... done
Starting the Coulomb interaction                   ... done (   0.1 sec)
Making the grid                                    ... done (   0.1 sec)
Mapping shells                                     ... done
Starting the XC term evaluation                    ... done (   0.1 sec)
Transforming the Hamiltonian                       ... done (   0.0 sec)
Diagonalizing the Hamiltonian                      ... done (   0.0 sec)
Back transforming the eigenvectors                 ... done (   0.0 sec)
Now organizing SCF variables                       ... done
                      ------------------
                      INITIAL GUESS DONE (   0.3 sec)
                      ------------------
             **** ENERGY FILE WAS UPDATED (4.en.tmp) ****
Finished Guess after   0.3 sec
Maximum memory used throughout the entire GUESS-calculation: 14.1 MB

-------------------------------------------------------------------------------------------
                                      ORCA LEAN-SCF
                              memory conserving SCF solver
-------------------------------------------------------------------------------------------

----------------------------------------D-I-I-S--------------------------------------------
Iteration    Energy (Eh)           Delta-E    RMSDP     MaxDP     DIISErr   Damp  Time(sec)
-------------------------------------------------------------------------------------------
               ***  Starting incremental Fock matrix formation  ***
    1    -550.9562310949347648     0.00e+00  2.47e-03  6.49e-02  2.48e-01  0.700   3.1
    2    -551.1224372523620332    -1.66e-01  1.89e-03  4.67e-02  1.53e-01  0.700   2.9
                               ***Turning on AO-DIIS***
    3    -551.2231476608687899    -1.01e-01  1.18e-03  2.03e-02  8.68e-02  0.700   2.8
    4    -551.2874420149714751    -6.43e-02  2.82e-03  4.28e-02  6.01e-02  0.000   2.8
    5    -551.4309746477356384    -1.44e-01  2.83e-04  5.41e-03  5.88e-03  0.000   2.9
    6    -551.4314685863230352    -4.94e-04  1.25e-04  3.70e-03  3.63e-03  0.000   2.6
                              *** Initializing SOSCF ***
---------------------------------------S-O-S-C-F--------------------------------------
Iteration    Energy (Eh)           Delta-E    RMSDP     MaxDP     MaxGrad    Time(sec)
--------------------------------------------------------------------------------------
    7    -551.4315738089212573    -1.05e-04  6.34e-05  1.64e-03  1.95e-03     2.5
               *** Restarting incremental Fock matrix formation ***
    8    -551.4316046104077031    -3.08e-05  3.11e-05  9.65e-04  7.24e-04     3.1
    9    -551.4316121334800300    -7.52e-06  3.19e-05  9.25e-04  4.55e-04     2.2
   10    -551.4316148590198736    -2.73e-06  5.84e-06  2.70e-04  1.05e-04     2.2
   11    -551.4316150316087715    -1.73e-07  2.25e-06  9.18e-05  4.92e-05     2.0
                 **** Energy Check signals convergence ****

               *****************************************************
               *                     SUCCESS                       *
               *           SCF CONVERGED AFTER  11 CYCLES          *
               *****************************************************

             **** ENERGY FILE WAS UPDATED (4.en.tmp) ****

----------------
TOTAL SCF ENERGY
----------------

Total Energy       :       -551.43161507634113 Eh          -15005.21710 eV

Components:
Nuclear Repulsion  :        695.77417093664803 Eh           18932.97773 eV
Electronic Energy  :      -1247.20578601298917 Eh          -33938.19482 eV
One Electron Energy:      -2132.21542594513403 Eh          -58020.53145 eV
Two Electron Energy:        885.00963993214486 Eh           24082.33662 eV

Virial components:
Potential Energy   :      -1102.45764833951307 Eh          -29999.39775 eV
Kinetic Energy     :        551.02603326317205 Eh           14994.18065 eV
Virial Ratio       :          2.00073604836920

---------------
SCF CONVERGENCE
---------------

  Last Energy change         ...    1.7259e-07  Tolerance :   1.0000e-06
  Last MAX-Density change    ...    9.1810e-05  Tolerance :   1.0000e-05
  Last RMS-Density change    ...    2.2549e-06  Tolerance :   1.0000e-06
  Last DIIS Error            ...    1.9527e-03  Tolerance :   1.0000e-06
  Last Orbital Gradient      ...    4.9152e-05  Tolerance :   5.0000e-05
  Last Orbital Rotation      ...    4.1290e-05  Tolerance :   5.0000e-05


----------------
ORBITAL ENERGIES
----------------

  NO   OCC          E(Eh)            E(eV) 
   0   2.0000     -20.613295      -560.9163 
   1   2.0000     -20.552725      -559.2681 
   2   2.0000     -15.548187      -423.0877 
   3   2.0000     -11.384304      -309.7827 
   4   2.0000     -11.274702      -306.8002 
   5   2.0000     -11.238903      -305.8261 
   6   2.0000     -11.237907      -305.7990 
   7   2.0000     -11.232535      -305.6528 
   8   2.0000     -11.232053      -305.6397 
   9   2.0000     -11.229950      -305.5825 
  10   2.0000     -11.229343      -305.5660 
  11   2.0000     -11.228613      -305.5461 
  12   2.0000      -1.467406       -39.9302 
  13   2.0000      -1.361857       -37.0580 
  14   2.0000      -1.200294       -32.6617 
  15   2.0000      -1.158481       -31.5239 
  16   2.0000      -1.062294       -28.9065 
  17   2.0000      -1.016131       -27.6503 
  18   2.0000      -0.982172       -26.7263 
  19   2.0000      -0.911405       -24.8006 
  20   2.0000      -0.830128       -22.5889 
  21   2.0000      -0.813707       -22.1421 
  22   2.0000      -0.784755       -21.3543 
  23   2.0000      -0.722643       -19.6641 
  24   2.0000      -0.699790       -19.0422 
  25   2.0000      -0.693291       -18.8654 
  26   2.0000      -0.652488       -17.7551 
  27   2.0000      -0.639192       -17.3933 
  28   2.0000      -0.633144       -17.2287 
  29   2.0000      -0.621829       -16.9208 
  30   2.0000      -0.594027       -16.1643 
  31   2.0000      -0.585867       -15.9423 
  32   2.0000      -0.576824       -15.6962 
  33   2.0000      -0.566000       -15.4016 
  34   2.0000      -0.543865       -14.7993 
  35   2.0000      -0.526599       -14.3295 
  36   2.0000      -0.500209       -13.6114 
  37   2.0000      -0.489996       -13.3335 
  38   2.0000      -0.486602       -13.2411 
  39   2.0000      -0.473615       -12.8877 
  40   2.0000      -0.444902       -12.1064 
  41   2.0000      -0.395910       -10.7733 
  42   2.0000      -0.335810        -9.1379 
  43   2.0000      -0.324323        -8.8253 
  44   0.0000       0.139576         3.7981 
  45   0.0000       0.142829         3.8866 
  46   0.0000       0.188851         5.1389 
  47   0.0000       0.225381         6.1329 
  48   0.0000       0.230331         6.2676 
  49   0.0000       0.239636         6.5208 
  50   0.0000       0.265997         7.2381 
  51   0.0000       0.282347         7.6830 
  52   0.0000       0.299849         8.1593 
  53   0.0000       0.309629         8.4254 
  54   0.0000       0.320236         8.7141 
*Only the first 10 virtual orbitals were printed.

                    ********************************
                    * MULLIKEN POPULATION ANALYSIS *
                    ********************************

-----------------------
MULLIKEN ATOMIC CHARGES
-----------------------
   0 C :   -0.154599
   1 C :   -0.144030
   2 C :   -0.144968
   3 H :    0.149975
   4 H :    0.143026
   5 C :   -0.162112
   6 C :   -0.260113
   7 H :    0.150304
   8 C :   -0.017769
   9 H :    0.148675
  10 C :   -0.140402
  11 H :    0.161425
  12 C :    0.004933
  13 H :    0.143804
  14 H :    0.131194
  15 C :    0.822483
  16 H :    0.369882
  17 N :   -0.701594
  18 O :   -0.624378
  19 H :    0.290567
  20 O :   -0.597924
  21 H :    0.162458
  22 H :    0.269163
Sum of atomic charges:   -0.0000000

--------------------------------
MULLIKEN REDUCED ORBITAL CHARGES
--------------------------------
  0 C s       :     3.145612  s :     3.145612
      pz      :     0.939587  p :     2.964391
      px      :     1.013196
      py      :     1.011609
      dz2     :     0.010496  d :     0.044596
      dxz     :     0.009603
      dyz     :     0.008536
      dx2y2   :     0.006425
      dxy     :     0.009536

  1 C s       :     3.146151  s :     3.146151
      pz      :     1.016733  p :     2.952855
      px      :     0.934394
      py      :     1.001729
      dz2     :     0.008029  d :     0.045024
      dxz     :     0.009542
      dyz     :     0.009380
      dx2y2   :     0.009229
      dxy     :     0.008844

  2 C s       :     3.134264  s :     3.134264
      pz      :     1.013941  p :     2.966328
      px      :     0.936296
      py      :     1.016090
      dz2     :     0.007734  d :     0.044376
      dxz     :     0.009497
      dyz     :     0.009391
      dx2y2   :     0.009133
      dxy     :     0.008622

  3 H s       :     0.836267  s :     0.836267
      pz      :     0.005566  p :     0.013758
      px      :     0.006317
      py      :     0.001875

  4 H s       :     0.843168  s :     0.843168
      pz      :     0.006794  p :     0.013806
      px      :     0.001768
      py      :     0.005244

  5 C s       :     3.138343  s :     3.138343
      pz      :     1.005858  p :     2.979360
      px      :     1.025707
      py      :     0.947794
      dz2     :     0.008042  d :     0.044409
      dxz     :     0.010843
      dyz     :     0.008336
      dx2y2   :     0.009097
      dxy     :     0.008090

  6 C s       :     3.251739  s :     3.251739
      pz      :     1.031059  p :     2.960299
      px      :     0.929971
      py      :     0.999269
      dz2     :     0.009364  d :     0.048076
      dxz     :     0.012449
      dyz     :     0.006065
      dx2y2   :     0.007341
      dxy     :     0.012856

  7 H s       :     0.835951  s :     0.835951
      pz      :     0.006797  p :     0.013745
      px      :     0.001720
      py      :     0.005227

  8 C s       :     3.126921  s :     3.126921
      pz      :     0.939095  p :     2.839141
      px      :     0.958931
      py      :     0.941115
      dz2     :     0.010923  d :     0.051706
      dxz     :     0.011447
      dyz     :     0.009788
      dx2y2   :     0.009229
      dxy     :     0.010320

  9 H s       :     0.837541  s :     0.837541
      pz      :     0.001836  p :     0.013784
      px      :     0.006322
      py      :     0.005626

 10 C s       :     3.144747  s :     3.144747
      pz      :     0.999128  p :     2.950575
      px      :     1.010307
      py      :     0.941141
      dz2     :     0.008234  d :     0.045080
      dxz     :     0.011047
      dyz     :     0.008269
      dx2y2   :     0.009273
      dxy     :     0.008257

 11 H s       :     0.824707  s :     0.824707
      pz      :     0.005584  p :     0.013868
      px      :     0.006415
      py      :     0.001868

 12 C s       :     3.187626  s :     3.187626
      pz      :     1.016352  p :     2.736792
      px      :     0.865902
      py      :     0.854537
      dz2     :     0.012054  d :     0.070649
      dxz     :     0.019231
      dyz     :     0.008836
      dx2y2   :     0.013290
      dxy     :     0.017239

 13 H s       :     0.843743  s :     0.843743
      pz      :     0.007385  p :     0.012453
      px      :     0.003390
      py      :     0.001679

 14 H s       :     0.856224  s :     0.856224
      pz      :     0.002520  p :     0.012582
      px      :     0.002675
      py      :     0.007387

 15 C s       :     2.943244  s :     2.943244
      pz      :     0.665053  p :     2.085864
      px      :     0.655685
      py      :     0.765127
      dz2     :     0.029563  d :     0.148409
      dxz     :     0.019424
      dyz     :     0.038465
      dx2y2   :     0.025104
      dxy     :     0.035852

 16 H s       :     0.588610  s :     0.588610
      pz      :     0.010496  p :     0.041508
      px      :     0.009457
      py      :     0.021554

 17 N s       :     3.605156  s :     3.605156
      pz      :     1.587765  p :     4.062705
      px      :     1.287769
      py      :     1.187172
      dz2     :     0.008407  d :     0.033732
      dxz     :     0.007705
      dyz     :     0.001184
      dx2y2   :     0.007588
      dxy     :     0.008848

 18 O s       :     3.839545  s :     3.839545
      pz      :     1.742483  p :     4.758842
      px      :     1.749754
      py      :     1.266604
      dz2     :     0.003282  d :     0.025992
      dxz     :     0.004052
      dyz     :     0.008546
      dx2y2   :     0.002815
      dxy     :     0.007296

 19 H s       :     0.682917  s :     0.682917
      pz      :     0.012512  p :     0.026515
      px      :     0.010014
      py      :     0.003990

 20 O s       :     3.877409  s :     3.877409
      pz      :     1.422110  p :     4.687758
      px      :     1.432307
      py      :     1.833341
      dz2     :     0.011120  d :     0.032758
      dxz     :     0.008756
      dyz     :     0.003699
      dx2y2   :     0.005789
      dxy     :     0.003394

 21 H s       :     0.825551  s :     0.825551
      pz      :     0.007695  p :     0.011991
      px      :     0.002817
      py      :     0.001480

 22 H s       :     0.704529  s :     0.704529
      pz      :     0.006890  p :     0.026308
      px      :     0.004948
      py      :     0.014471



                     *******************************
                     * LOEWDIN POPULATION ANALYSIS *
                     *******************************

----------------------
LOEWDIN ATOMIC CHARGES
----------------------
   0 C :   -0.079499
   1 C :   -0.069294
   2 C :   -0.078069
   3 H :    0.075982
   4 H :    0.071783
   5 C :   -0.082396
   6 C :   -0.108532
   7 H :    0.075933
   8 C :   -0.025600
   9 H :    0.075226
  10 C :   -0.066751
  11 H :    0.078012
  12 C :   -0.015197
  13 H :    0.075070
  14 H :    0.069919
  15 C :    0.248143
  16 H :    0.201273
  17 N :   -0.281728
  18 O :   -0.193628
  19 H :    0.137590
  20 O :   -0.313434
  21 H :    0.077800
  22 H :    0.127396

-------------------------------
LOEWDIN REDUCED ORBITAL CHARGES
-------------------------------
  0 C s       :     2.886040  s :     2.886040
      pz      :     1.037921  p :     3.099669
      px      :     1.037584
      py      :     1.024163
      dz2     :     0.022709  d :     0.093790
      dxz     :     0.021382
      dyz     :     0.018457
      dx2y2   :     0.012765
      dxy     :     0.018477

  1 C s       :     2.886576  s :     2.886576
      pz      :     1.031480  p :     3.088126
      px      :     1.037979
      py      :     1.018667
      dz2     :     0.016450  d :     0.094592
      dxz     :     0.020963
      dyz     :     0.018059
      dx2y2   :     0.019740
      dxy     :     0.019380

  2 C s       :     2.883476  s :     2.883476
      pz      :     1.032481  p :     3.100509
      px      :     1.038869
      py      :     1.029159
      dz2     :     0.016238  d :     0.094085
      dxz     :     0.020845
      dyz     :     0.018202
      dx2y2   :     0.019628
      dxy     :     0.019172

  3 H s       :     0.882763  s :     0.882763
      pz      :     0.016403  p :     0.041254
      px      :     0.018434
      py      :     0.006417

  4 H s       :     0.886920  s :     0.886920
      pz      :     0.019658  p :     0.041297
      px      :     0.006249
      py      :     0.015390

  5 C s       :     2.885139  s :     2.885139
      pz      :     1.035523  p :     3.103244
      px      :     1.042155
      py      :     1.025566
      dz2     :     0.016838  d :     0.094014
      dxz     :     0.022098
      dyz     :     0.018301
      dx2y2   :     0.018846
      dxy     :     0.017931

  6 C s       :     2.891845  s :     2.891845
      pz      :     1.056916  p :     3.124382
      px      :     1.021719
      py      :     1.045747
      dz2     :     0.017120  d :     0.092304
      dxz     :     0.024171
      dyz     :     0.011211
      dx2y2   :     0.014906
      dxy     :     0.024897

  7 H s       :     0.882791  s :     0.882791
      pz      :     0.019720  p :     0.041276
      px      :     0.006103
      py      :     0.015453

  8 C s       :     2.865048  s :     2.865048
      pz      :     1.035512  p :     3.048804
      px      :     1.015519
      py      :     0.997773
      dz2     :     0.024096  d :     0.111747
      dxz     :     0.025481
      dyz     :     0.021006
      dx2y2   :     0.019311
      dxy     :     0.021854

  9 H s       :     0.883337  s :     0.883337
      pz      :     0.006424  p :     0.041437
      px      :     0.018479
      py      :     0.016535

 10 C s       :     2.886211  s :     2.886211
      pz      :     1.032163  p :     3.085899
      px      :     1.033847
      py      :     1.019889
      dz2     :     0.017160  d :     0.094641
      dxz     :     0.022256
      dyz     :     0.018085
      dx2y2   :     0.019244
      dxy     :     0.017895

 11 H s       :     0.880051  s :     0.880051
      pz      :     0.016737  p :     0.041937
      px      :     0.018768
      py      :     0.006432

 12 C s       :     2.873011  s :     2.873011
      pz      :     1.050022  p :     3.001788
      px      :     0.979337
      py      :     0.972429
      dz2     :     0.022166  d :     0.140399
      dxz     :     0.037630
      dyz     :     0.017779
      dx2y2   :     0.027191
      dxy     :     0.035633

 13 H s       :     0.884799  s :     0.884799
      pz      :     0.022535  p :     0.040131
      px      :     0.010700
      py      :     0.006896

 14 H s       :     0.890469  s :     0.890469
      pz      :     0.008776  p :     0.039612
      px      :     0.008770
      py      :     0.022066

 15 C s       :     2.839438  s :     2.839438
      pz      :     0.839330  p :     2.591962
      px      :     0.813551
      py      :     0.939081
      dz2     :     0.058469  d :     0.320456
      dxz     :     0.046260
      dyz     :     0.084864
      dx2y2   :     0.051253
      dxy     :     0.079609

 16 H s       :     0.678840  s :     0.678840
      pz      :     0.032383  p :     0.119887
      px      :     0.029495
      py      :     0.058009

 17 N s       :     3.179948  s :     3.179948
      pz      :     1.550128  p :     4.041143
      px      :     1.298353
      py      :     1.192662
      dz2     :     0.011408  d :     0.060637
      dxz     :     0.013862
      dyz     :     0.002527
      dx2y2   :     0.016158
      dxy     :     0.016681

 18 O s       :     3.456575  s :     3.456575
      pz      :     1.709217  p :     4.688086
      px      :     1.717532
      py      :     1.261338
      dz2     :     0.005541  d :     0.048966
      dxz     :     0.005414
      dyz     :     0.014909
      dx2y2   :     0.009980
      dxy     :     0.013122

 19 H s       :     0.778836  s :     0.778836
      pz      :     0.040911  p :     0.083574
      px      :     0.030377
      py      :     0.012286

 20 O s       :     3.545500  s :     3.545500
      pz      :     1.459878  p :     4.710553
      px      :     1.461224
      py      :     1.789451
      dz2     :     0.013413  d :     0.057381
      dxz     :     0.021007
      dyz     :     0.007375
      dx2y2   :     0.008868
      dxy     :     0.006718

 21 H s       :     0.882339  s :     0.882339
      pz      :     0.023875  p :     0.039861
      px      :     0.009756
      py      :     0.006230

 22 H s       :     0.790858  s :     0.790858
      pz      :     0.021733  p :     0.081746
      px      :     0.016394
      py      :     0.043619



                      *****************************
                      * MAYER POPULATION ANALYSIS *
                      *****************************

  NA   - Mulliken gross atomic population
  ZA   - Total nuclear charge
  QA   - Mulliken gross atomic charge
  VA   - Mayer's total valence
  BVA  - Mayer's bonded valence
  FA   - Mayer's free valence

  ATOM       NA         ZA         QA         VA         BVA        FA
  0 C      6.1546     6.0000    -0.1546     3.9266     3.9266     0.0000
  1 C      6.1440     6.0000    -0.1440     3.9241     3.9241    -0.0000
  2 C      6.1450     6.0000    -0.1450     3.9292     3.9292    -0.0000
  3 H      0.8500     1.0000     0.1500     0.9532     0.9532    -0.0000
  4 H      0.8570     1.0000     0.1430     0.9557     0.9557    -0.0000
  5 C      6.1621     6.0000    -0.1621     3.9303     3.9303    -0.0000
  6 C      6.2601     6.0000    -0.2601     3.8158     3.8158    -0.0000
  7 H      0.8497     1.0000     0.1503     0.9532     0.9532     0.0000
  8 C      6.0178     6.0000    -0.0178     3.8655     3.8655    -0.0000
  9 H      0.8513     1.0000     0.1487     0.9538     0.9538    -0.0000
 10 C      6.1404     6.0000    -0.1404     3.9292     3.9292    -0.0000
 11 H      0.8386     1.0000     0.1614     0.9539     0.9539    -0.0000
 12 C      5.9951     6.0000     0.0049     3.7354     3.7354     0.0000
 13 H      0.8562     1.0000     0.1438     0.9528     0.9528    -0.0000
 14 H      0.8688     1.0000     0.1312     0.9526     0.9526     0.0000
 15 C      5.1775     6.0000     0.8225     3.6791     3.6791    -0.0000
 16 H      0.6301     1.0000     0.3699     0.8738     0.8738     0.0000
 17 N      7.7016     7.0000    -0.7016     2.7519     2.7519     0.0000
 18 O      8.6244     8.0000    -0.6244     1.8534     1.8534     0.0000
 19 H      0.7094     1.0000     0.2906     0.9046     0.9046     0.0000
 20 O      8.5979     8.0000    -0.5979     1.8794     1.8794    -0.0000
 21 H      0.8375     1.0000     0.1625     0.9408     0.9408    -0.0000
 22 H      0.7308     1.0000     0.2692     0.9086     0.9086    -0.0000

  Mayer bond orders larger than 0.100000
B(  0-C ,  1-C ) :   1.4528 B(  0-C ,  9-H ) :   0.9621 B(  0-C , 10-C ) :   1.4464 
B(  1-C ,  5-C ) :   1.4451 B(  1-C ,  7-H ) :   0.9614 B(  2-C ,  4-H ) :   0.9604 
B(  2-C ,  8-C ) :   1.4385 B(  2-C , 10-C ) :   1.4556 B(  3-H , 10-C ) :   0.9612 
B(  5-C ,  8-C ) :   1.4461 B(  5-C , 11-H ) :   0.9542 B(  6-C ,  8-C ) :   0.9662 
B(  6-C , 12-C ) :   0.9441 B(  6-C , 13-H ) :   0.9681 B(  6-C , 14-H ) :   0.9725 
B( 12-C , 15-C ) :   0.9198 B( 12-C , 17-N ) :   0.9700 B( 12-C , 21-H ) :   0.9570 
B( 15-C , 18-O ) :   0.9901 B( 15-C , 20-O ) :   1.8053 B( 16-H , 18-O ) :   0.8411 
B( 17-N , 19-H ) :   0.8894 B( 17-N , 22-H ) :   0.9115 

-------
TIMINGS
-------

Total SCF time: 0 days 0 hours 0 min 30 sec 

Total time                  ....      30.996 sec
Sum of individual times     ....      29.207 sec  ( 94.2%)

SCF preparation             ....       0.017 sec  (  0.1%)
Fock matrix formation       ....      29.111 sec  ( 93.9%)
  Startup                   ....       0.001 sec  (  0.0% of F)
  Coulomb+Exchange Fock     ....      30.890 sec  (106.1% of F)
Diagonalization             ....       0.000 sec  (  0.0%)
Density matrix formation    ....       0.005 sec  (  0.0%)
Total Energy calculation    ....       0.001 sec  (  0.0%)
Population analysis         ....       0.004 sec  (  0.0%)
Orbital Transformation      ....       0.008 sec  (  0.0%)
Orbital Orthonormalization  ....       0.000 sec  (  0.0%)
DIIS solution               ....       0.043 sec  (  0.1%)
SOSCF solution              ....       0.015 sec  (  0.0%)
Finished LeanSCF after  31.0 sec

Maximum memory used throughout the entire LEANSCF-calculation: 17.7 MB

------------------------------------------------------------------------------
                                ORCA  MP2 
------------------------------------------------------------------------------

Freezing NCore=24 chemical core electrons

----------
MP2 ENERGY (disk based algorithm)
----------

Dimension of the basis                      ...  223
Memory devoted to MP2                       ... 4096 MB   
Data format for buffers                     ... DOUBLE
Compression type for matrix containers      ... UNCOMPRESSED

-------------------------
SHARK HALF TRANSFORMATION (Exchange order)
-------------------------

Number of basis functions                   ...    223
Number of operators                         ...      1
   Operator  0:   12-  43 (p-index in (p*|q*))
   Operator  0:   12-  43 (q-index in (p*|q*)
Integral generator used                     ... SHARK
Contraction scheme used                     ... SEGMENTED CONTRACTION
MaxCore in resort                           ...   4096 MB

Half transformed integrals for op=   0      ... 4.SHARK_MNPQ0.tmp
Resorted half transformed integrals         ... 4.KAO_aa.tmp

Half trafo (segmented) done. Total time = 19.6 sec. integrals= 17.5 sec trafo=  2.0 sec

----------------------
SHARK INTEGRAL SORTING (Exchange)
----------------------

Input container                             ... 4.SHARK_MNPQ0.tmp
Output container                            ... 4.KAO_aa.tmp
Range of AO-indices                         ...    0 -  222
Range of bra indices i                      ...   12 -   43
Range of ket indices j                      ...   12 -   43
Symmetric i,j range                         ... YES
Number of (i,j) pairs generated             ...  528
Max Core memory in MB                       ...   4096

Available core memory in MB                 ...   4083.50
MB needed for one item                      ...      0.38
Fixed MB needed                             ...      0.00
Number of items                             ...       528
Number of batches                           ...         1
Items treated per batch                     ...       528
Batch   0                                   ...      0-   527 (   528)
   => Closing output file and leaving
done (  0.2 sec)

SHARK half integral transformation done. Total time = 19.9 sec.


Finished integral transformation - now doing MP2 part

OPERATOR COMBINATION   0   0: ij=( 12.. 43, 12.. 43)
  Internal MO  14
  Internal MO  17
  Internal MO  20
  Internal MO  23
  Internal MO  26
  Internal MO  29
  Internal MO  32
  Internal MO  35
  Internal MO  38
  Internal MO  41
-----------------------------------------------
 MP2 CORRELATION ENERGY   :     -1.709019499 Eh
-----------------------------------------------


-------
TIMINGS
-------
Total time                :   20.191 sec
Integral trafo            :   19.864 sec ( 98.4%)
K(i,j)                    :    0.279 sec (  1.4%)
T(i,j)                    :    0.008 sec (  0.0%)

---------------------------------------
MP2 TOTAL ENERGY:     -553.140634575 Eh
---------------------------------------

Maximum memory used throughout the entire MP2-calculation: 214.4 MB

-------------------------   --------------------
FINAL SINGLE POINT ENERGY      -553.140634575211
-------------------------   --------------------


------------------------------------------------------------------------------
                              ORCA PROPERTY CALCULATIONS
------------------------------------------------------------------------------

GBWName                                 ... 4.gbw
Number of atoms                         ...     23
Number of basis functions               ...    223
Max core memory                         ...   4096 MB

Electric properties:
Dipole moment                           ... YES
Quadrupole moment                       ...  NO
Static polarizability (Dipole/Dipole)   ...  NO
Static polarizability (Dipole/Quad.)    ...  NO
Static polarizability (Quad./Quad.)     ...  NO
Static polarizability (Velocity)        ...  NO
Static hyperpolarizability              ...  NO

Atomic electric properties:
Dipole moment                           ...  NO
Quadrupole moment                       ...  NO
Static polarizability                   ...  NO

Choice of electric origin               ... Center of mass
Position of electric origin             ...    -6.354287     2.608777     0.330814

General magnetic properties:
Magnetizability                         ...  NO

EPR properties:
g-Tensor (aka g-matrix)                 ...  NO
Zero-Field splitting spin-orbit         ...  NO
Zero-field splitting spin-spin          ...  NO
Hyperfine couplings                     ...  NO (   0 nuclei)
Quadrupole couplings                    ...  NO (   0 nuclei)
Contact density                         ...  NO (   0 nuclei)

NMR properties:
Chemical shifts                         ...  NO (   0 nuclei)
Spin-rotation constants                 ...  NO (   0 nuclei)
Spin-spin couplings                     ...  NO (   0 nuclei,    0 pairs)

Choice of magnetic origin               ... GIAO
Position of magnetic origin             ...     0.000000     0.000000     0.000000

Properties with geometric perturbations:
SCF Hessian                             ...  NO
IR spectrum                             ...  NO
VCD spectrum                            ...  NO
X-ray spectroscopy properties:
SCF XES/XAS/RIXS spectra                ...  NO

SCF SOC stabilization energy            ...  NO
Diagonal Born-Oppenheimer correction    ...  NO

-------------
DIPOLE MOMENT
-------------

Method             : SCF
Type of density    : Electron Density
Multiplicity       :   1
Irrep              :   0
Energy             :  -551.4316150763411315 Eh
Basis              : AO
                                X                 Y                 Z
Electronic contribution:      1.803670669      -3.520252336      -0.313243440
Nuclear contribution   :     -2.594652475       3.661211503       0.322071472
                        -----------------------------------------
Total Dipole Moment    :     -0.790981806       0.140959166       0.008828032
                        -----------------------------------------
Magnitude (a.u.)       :      0.803492152
Magnitude (Debye)      :      2.042314744



--------------------
Rotational spectrum 
--------------------
 
Rotational constants in cm-1:             0.060158             0.021425             0.019038 
Rotational constants in MHz :          1803.484678           642.292556           570.752857 

Dipole components along the rotational axes: 
x,y,z [a.u.] :    -0.704956    -0.385529     0.001855 
x,y,z [Debye]:    -1.791857    -0.979937     0.004714 

 

Dipole moment calculation done in   0.0 sec 

Maximum memory used throughout the entire PROP-calculation: 12.7 MB

--------------------------------
SUGGESTED CITATIONS FOR THIS RUN
--------------------------------

Below you find a list of papers that are relevant to this ORCA run
We neither can nor want to force you to cite these papers, but we appreciate if you do
You receive ORCA, which is the product of decades of hard work by many enthusiastic individuals, for free
The only thing we kindly ask in return is that you cite our papers,
We deeply appreciate it, if you show your appreciation for ORCA by not just citing the generic ORCA reference.

Please note that relegating all ORCA citations to the supporting information does *not* help us.
SI sections are not indexed - citations you put there will not count into any citation statistics
But we need these citations in order to attract the funding resources that allow us to do what we are doing

Therefore, if you are a happy ORCA user, please consider citing a few of the papers listed below in the main body of your paper

In addition to the list printed below, the program has created the file 4.bibtex that contains the list in bibtex format
You can import this file easily into all common literature databanks and citation aid programs


List of essential papers. We consider these as the minimum necessary citations

  1. Neese, F.
     Software update: the ORCA program system, version 6.0
     WIRES Comput. Molec. Sci. 2025 15(1), e70019
     doi.org/10.1002/wcms.7019

List of papers to cite with high priority. The work reported in these papers was absolutely
necessary for this run to complete.
Our perspective: the developers of density functionals and basis sets usually get cited in chemistry papers
Good! But without the algorithms to do something with them, the functionals or basis sets would not do anything.
Hence, in our opinion, the algorithm design and method developments papers are equally worthy of getting cited

  1. Neese, F.
     The SHARK Integral Generation and Digestion System
     J. Comp. Chem. 2022 44(3), 381
     doi.org/10.1002/jcc.26942

List of suggested additional citations. These are papers that are important in the 'surrounding' of 
of this run, or papers that preceded the highly important papers. If you like your results we are grateful for a citation.

  1. Neese, F.
     The ORCA program system
     WIRES Comput. Molec. Sci. 2012 2(1), 73-78
     doi.org/10.1002/wcms.81
  2. Neese, F.
     Software update: the ORCA program system, version 4.0
     WIRES Comput. Molec. Sci. 2018 8(1), 1-6
     doi.org/10.1002/wcms.1327
  3. Neese, F.; Wennmohs, F.; Becker, U.; Riplinger, C.
     The ORCA quantum chemistry program package
     J. Chem. Phys. 2020 152(22), 224108
     doi.org/10.1063/5.0004608
  4. Neese, F.
     Software update: The ORCA program system—Version 5.0
     WIRES Comput. Molec. Sci. 2022 12(1), e1606
     doi.org/10.1002/wcms.1606

List of optional additional citations

  1. Neese, F.
     Approximate second-order SCF convergence for spin unrestricted wavefunctions
     Chem. Phys. Lett. 2000 325(1-3), 93-98
     doi.org/10.1016/s0009-2614(00)00662-x

Timings for individual modules:

Sum of individual times          ...       52.147 sec (=   0.869 min)
Startup calculation              ...        0.565 sec (=   0.009 min)   1.1 %
SCF iterations                   ...       31.339 sec (=   0.522 min)  60.1 %
Property calculations            ...        0.025 sec (=   0.000 min)   0.0 %
MP2 module                       ...       20.218 sec (=   0.337 min)  38.8 %
                             ****ORCA TERMINATED NORMALLY****
TOTAL RUN TIME: 0 days 0 hours 0 minutes 52 seconds 185 msec
