
                                 *****************
                                 * O   R   C   A *
                                 *****************

                                            #,                                       
                                            ###                                      
                                            ####                                     
                                            #####                                    
                                            ######                                   
                                           ########,                                 
                                     ,,################,,,,,                         
                               ,,#################################,,                 
                          ,,##########################################,,             
                       ,#########################################, ''#####,          
                    ,#############################################,,   '####,        
                  ,##################################################,,,,####,       
                ,###########''''           ''''###############################       
              ,#####''   ,,,,##########,,,,          '''####'''          '####       
            ,##' ,,,,###########################,,,                        '##       
           ' ,,###''''                  '''############,,,                           
         ,,##''                                '''############,,,,        ,,,,,,###''
      ,#''                                            '''#######################'''  
     '                                                          ''''####''''         
             ,#######,   #######,   ,#######,      ##                                
            ,#'     '#,  ##    ##  ,#'     '#,    #''#        ,####,    ,#,          
            ##       ##  ##   ,#'  ##            #'  '#       #'       ,# #          
            ##       ##  #######   ##           ,######,      #####,      #          
            '#,     ,#'  ##    ##  '#,     ,#' ,#      #,     #,   #      #          
             '#######'   ##     ##  '#######'  #'      '#     '####' #    #          



                #########################################################
                #                        -***-                          #
                #          Department of theory and spectroscopy        #
                #                                                       #
                #                      Frank Neese                      #
                #                                                       #
                #     Directorship, Architecture, Infrastructure        #
                #                    SHARK, DRIVERS                     #
                #        Core code/Algorithms in most modules           #
                #                                                       #
                #        Max Planck Institute fuer Kohlenforschung      #
                #                Kaiser Wilhelm Platz 1                 #
                #                 D-45470 Muelheim/Ruhr                 #
                #                      Germany                          #
                #                                                       #
                #                  All rights reserved                  #
                #                        -***-                          #
                #########################################################


                         Program Version 6.1.0  -  RELEASE   -
                                (GIT: $679e74b$)
                          ($2025-06-10 18:02:51 +0200$)


 With contributions from (in alphabetic order):
[Max-Planck-Institut fuer Kohlenforschung]                               
  Daniel Aravena         : Magnetic Suceptibility                        
  Michael Atanasov       : Ab Initio Ligand Field Theory (pilot matlab implementation)
  Alexander A. Auer      : GIAO ZORA, VPT2 properties, NMR spectrum      
  Ute Becker             : All parallelization in ORCA, NUMFREQ, NUMCALC 
  Giovanni Bistoni       : ED, misc. LED, open-shell LED, HFLD           
  Dmytro Bykov           : pre 5.0 version of the SCF Hessian            
  Marcos Casanova-Páez   : Triplet and SCS-CIS(D). UHF-(DLPNO)-IP/EA/STEOM-CCSD. UHF-CVS-IP/STEOM-CCSD   
  Vijay G. Chilkuri      : MRCI spin determinant printing, contributions to CSF-ICE 
  Pauline Colinet        : FMM embedding                                 
  Dipayan Datta          : RHF DLPNO-CCSD density                        
  Achintya Kumar Dutta   : EOM-CC, STEOM-CC                              
  Nicolas Foglia         : Exact transition moments, OPA infrastructure, MCD improvements    
  Dmitry Ganyushin       : Spin-Orbit,Spin-Spin,Magnetic field MRCI      
  Miquel Garcia-Rates    : C-PCM and meta-GGA Hessian, CCSD/C-PCM, Gaussian charge scheme 
  Tiago L. C. Gouveia    : GS-ROHF, GS-ROCIS                             
  Yang Guo               : DLPNO-NEVPT2, F12-NEVPT2, CIM, IAO-localization        
  Andreas Hansen         : Spin unrestricted coupled pair/coupled cluster methods 
  Ingolf Harden          : AUTO-CI MPn and infrastructure                
  Benjamin Helmich-Paris : MC-RPA, TRAH-(SCF,CASSCF), AVAS, COSX integrals, SCF dyn. polar., MC-PDFT, srDFT 
  Lee Huntington         : MR-EOM, pCC                                   
  Robert Izsak           : Overlap fitted RIJCOSX, COSX-SCS-MP3, EOM     
  Riya Kayal             : Wick's Theorem for AUTO-CI, AUTO-CI UHF-CCSDT 
  Emily Kempfer          : AUTO-CI RHF CISDT and CCSDT, approximate NEVPT4
  Christian Kollmar      : KDIIS, OOCD, Brueckner-CCSD(T), CCSD density, CASPT2, CASPT2-K, improved NEVPT2 
  Axel Koslowski         : Symmetry handling                             
  Simone Kossmann        : meta-GGA functionals, TD-DFT gradient, OOMP2, (MP2 Hessian; deprecated post 5.0) 
  Lucas Lang             : DCDCAS, Hyperfine gauge corrections, ICE-SOC+SSC
  Marvin Lechner         : AUTO-CI (C++ implementation), FIC-MRCC        
  Spencer Leger          : CASSCF response                               
  Dagmar Lenk            : GEPOL surface, SMD, ORCA-2-JSON               
  Dimitrios Liakos       : Extrapolation schemes; Compound Job, Property file
  Dimitrios Manganas     : Further ROCIS development; embedding schemes. LFT, Crystal Embedding 
  Dimitrios Pantazis     : SARC Basis sets                               
  Anastasios Papadopoulos: AUTO-CI, single reference methods and gradients 
  Taras Petrenko         : pre 6.0 DFT Hessian and TD-DFT gradient,  ECA, NRVS 
  Petra Pikulova         : Analytic Raman intensities                    
  Peter Pinski           : DLPNO-MP2, DLPNO-MP2 Gradient                 
  Shashank Vittal Rao    : ES-AILFT, MagRelax                            
  Christoph Reimann      : Effective Core Potentials                     
  Marius Retegan         : Local ZFS, SOC                                
  Christoph Riplinger    : Optimizer, TS searches, QM/MM, DLPNO-CCSD(T), (RO)-DLPNO pert. Triples 
  Michael Roemelt        : Original ROCIS implementation, recursive CI coupling coefficients
  Masaaki Saitow         : Open-shell DLPNO-CCSD energy and density      
  Barbara Sandhoefer     : DKH picture change effects                    
  Yorick L. A. Schmerwitz: GMF and freeze-and-release deltaSCF, NEB S-IDPP initial path                    
  Kantharuban Sivalingam : CASSCF convergence/infrastructure, NEVPT2, NEVPT3, NEVPT4(SD), FIC-MRCI and CEPA variants
  Bernardo de Souza      : ESD, SOC TD-DFT                               
  Georgi L. Stoychev     : AutoAux, RI-MP2 NMR, DLPNO-MP2 response, X2C  
  Van Anh Tran           : RI-MP2 g-tensors                              
  Willem Van den Heuvel  : Paramagnetic NMR                              
  Zikuan Wang            : NOTCH, Electric field optimization            
  Frank Wennmohs         : Technical directorship and infrastructure     
  Hang Xu                : AUTO-CI-Response properties                   
                                                                         
[FACCTs GmbH]                                                            
  Markus Bursch, Nicolas Foglia, Miquel Garcia-Rates, Ingolf Harden, Hagen Neugebauer, Anastasios Papadopoulos, 
  Christoph Riplinger, Bernardo de Souza, Georgi L. Stoychev                                                    
                                                                 
  APM, various basis sets, CI-OPT, improved COSX, DLPNO-Multilevel,           
  DOCKER, DRACO, updates on ESD, Fragmentator, GOAT, IRC, LR-CPCM, L-BFGS, MBIS, meta-GGA TD-DFT gradient, ML-optimized integration grids, 
  MM, NACMEs, nearIR, NEB, NEB-TS, NL-DFT gradient (VV10), 2- and 3-layer-ONIOM, interface openCOSMO-RS, QMMM,   
  Crystal-QMMM, RESP, rigid body optimization, SF, symmetry and pop. for TD-DFT, various functionals, SOLVATOR                                   
                                                                         
[Other institutions]                                                     
  V. Asgeirsson          : NEB                                           
  Christoph Bannwarth    : sTDA-DFT, sTD-DFT, PBEh-3c, B97-3c, D3        
  Giovanni Bistoni       : ETS/NOCV, ADLD/ADEX, COVALED                  
  Martin Brehm           : Molecular dynamics                            
  Ronald Cardenas        : ETS/NOCV                                      
  Martina Colucci        : COVALED                                       
  Sebastian Ehlert       : rSCAN, r2SCAN, r2SCAN-3c, D4, dhf basis sets  
  Marvin Friede          : D4 for Fr, Ra, Ac-Lr                          
  Lars Goerigk           : TD-DFT with DH, B97 family of functionals     
  Stefan Grimme          : VdW corrections, initial TS optimization, DFT functionals, gCP, sTDA/sTD-DF 
  Waldemar Hujo          : DFT-NL                                        
  H. Jonsson             : NEB                                           
  Holger Kruse           : gCP                                           
  Marcel Mueller         : wB97X-3c, vDZP basis set                      
  Hagen Neugebauer       : wr2SCAN, Native XTB                           
  Gianluca Regni         : ADLD/ADEX                                     
  Tobias Risthaus        : pre 6.0 range-separated hybrid DFT and stability analysis
  Lukas Wittmann         : regularized MP2, r2SCAN double-hybrids, wr2SCAN        
                                                                         
We gratefully acknowledge several colleagues who have allowed us to      
interface, adapt or use parts of their codes:                            
  Ed Valeev, F. Pavosevic, A. Kumar             : LibInt (2-el integral package), F12 methods 
  Garnet Chan, S. Sharma, J. Yang, R. Olivares  : DMRG                   
  Ulf Ekstrom                                   : XCFun DFT Library      
  Mihaly Kallay                                 : mrcc  (arbitrary order and MRCC methods)
  Frank Weinhold                                : gennbo (NPA and NBO analysis)           
  Simon Mueller                                 : openCOSMO-RS                            
  Christopher J. Cramer and Donald G. Truhlar   : smd solvation model                     
  S Lehtola, MJT Oliveira, MAL Marques          : LibXC Library                           
  Liviu Ungur et al                             : ANISO software                          


 Your calculation uses the libint2 library for the computation of 2-el integrals
 For citations please refer to: http://libint.valeyev.net

 Your ORCA version has been built with support for libXC version: 7.0.0
 For citations please refer to: https://libxc.gitlab.io

 This ORCA versions uses:
   CBLAS   interface :  Fast vector & matrix operations
   LAPACKE interface :  Fast linear algebra routines
   SCALAPACK package :  Parallel linear algebra routines
   Shared memory     :  Shared parallel matrices
   BLAS/LAPACK       :  OpenBLAS 0.3.29  USE64BITINT DYNAMIC_ARCH NO_AFFINITY Haswell SINGLE_THREADED
        Core in use  :  Haswell
   Copyright (c) 2011-2014, The OpenBLAS Project


  ***********************************
  * Starting time: Sun Aug 31 13:00:22 2025
  * Host name:     chemlab03
  * Process ID:    91994
  * Working dir.:  /home/vivek/mm-project/vivek/xtb-goat/MP2-opt/c/4
  ***********************************



***************************************
The coordinates will be read from file: /home/vivek/mm-project/vivek/xtb-goat/xtb-goat/c/C_CONF/4.xyz
***************************************


================================================================================

----- Orbital basis set information -----
Your calculation utilizes the basis: 6-31G**
   H-He, Li-Ne : W. J. Hehre, R. Ditchfield and J.A. Pople, J. Chem. Phys. 56, 2257 (1972).
                 Note: He and Ne are unpublished basis sets taken from the Gaussian program.
                 Note: Li and B from J. D. Dill and J. A. Pople, J. Chem. Phys. 62, 2921 (1975).
   Na - Ar     : M. M. Francl, W. J. Pietro, W. J. Hehre, J. S. Binkley, M. S. Gordon, 
                 D. J. DeFrees and J. A. Pople, J. Chem. Phys. 77, 3654 (1982).
   K - Zn      : V. A. Rassolov, J. A. Pople, M. A. Ratner, and T. L. Windus, J. Chem. Phys. 109, 1223 (1998).

================================================================================
                                        WARNINGS
                       Please study these warnings very carefully!
================================================================================


WARNING: The frozen-core approximation for MP2-gradient calculations is turned on by default.

WARNING: Geometry Optimization
  ===> : Switching off AutoStart
         For restart on a previous wavefunction, please use MOREAD

WARNING: Post HF methods need fully converged wavefunctions
  ===> : Setting SCFConvForced true
         You can overwrite this default with %scf ConvForced false 


================================================================================
                                       INPUT FILE
================================================================================
NAME = 4.inp
|  1> ! MP2 6-31G** opt
|  2> 
|  3> * xyzfile 0 1 /home/vivek/mm-project/vivek/xtb-goat/xtb-goat/c/C_CONF/4.xyz
|  4> 
|  5>                          ****END OF INPUT****
================================================================================

                       *****************************
                       * Geometry Optimization Run *
                       *****************************

Geometry optimization settings:
Update method            Update   .... BFGS
Choice of coordinates    CoordSys .... (2022) Redundant Internals
Initial Hessian          InHess   .... Almloef's Model
Max. no of cycles        MaxIter  .... 50

Convergence Tolerances:
Energy Change            TolE     ....  5.0000e-06 Eh
Max. Gradient            TolMAXG  ....  3.0000e-04 Eh/bohr
RMS Gradient             TolRMSG  ....  1.0000e-04 Eh/bohr
Max. Displacement        TolMAXD  ....  4.0000e-03 bohr
RMS Displacement         TolRMSD  ....  2.0000e-03 bohr
Strict Convergence                .... False

------------------------------------------------------------------------------
                        ORCA OPTIMIZATION COORDINATE SETUP
------------------------------------------------------------------------------

The optimization will be done in redundant internal coordinates (2022)
Making redundant internal coordinates   ...  (2022 redundants) done
Evaluating the initial hessian          ...  (Almloef) done
Evaluating the coordinates              ...  done
Calculating the B-matrix                .... done
Calculating the G-matrix                .... done
The number of degrees of freedom        ....   55

    -----------------------------------------------------------------
                    Redundant Internal Coordinates


    -----------------------------------------------------------------
         Definition                    Initial Value    Approx d2E/dq
    -----------------------------------------------------------------
      1. B(H   2,C   1)                  1.0912         0.358504   
      2. B(C   5,C   1)                  1.5360         0.365422   
      3. B(C   5,H   0)                  1.0980         0.349646   
      4. B(S   7,H   3)                  1.3297         0.402487   
      5. B(S   7,C   1)                  1.8205         0.346448   
      6. B(N   8,H   6)                  1.0134         0.427340   
      7. B(N   8,C   5)                  1.4463         0.455027   
      8. B(H   9,N   8)                  1.0144         0.425743   
      9. B(C  10,C   5)                  1.5283         0.375900   
     10. B(C  10,O   4)                  1.3358         0.682871   
     11. B(H  11,C   1)                  1.0890         0.361388   
     12. B(O  12,H   3)                  2.1464         0.010000   
     13. B(O  12,C  10)                  1.2043         1.107010   
     14. B(H  13,O   4)                  0.9705         0.500243   
     15. A(H   2,C   1,C   5)          111.1518         0.322911   
     16. A(H   2,C   1,H  11)          109.2320         0.290800   
     17. A(C   5,C   1,S   7)          113.1193         0.376207   
     18. A(H   2,C   1,S   7)          108.7996         0.336330   
     19. A(C   5,C   1,H  11)          108.4595         0.323336   
     20. A(S   7,C   1,H  11)          105.8927         0.336779   
     21. A(C  10,O   4,H  13)          110.5520         0.373827   
     22. A(C   1,C   5,N   8)          108.9653         0.372099   
     23. A(C   1,C   5,C  10)          109.0413         0.362368   
     24. A(H   0,C   5,N   8)          108.1292         0.331415   
     25. A(H   0,C   5,C  10)          107.3149         0.323083   
     26. A(N   8,C   5,C  10)          114.9762         0.373916   
     27. A(H   0,C   5,C   1)          108.2142         0.321590   
     28. A(C   1,S   7,H   3)           95.7697         0.367624   
     29. A(H   6,N   8,H   9)          107.6434         0.301869   
     30. A(C   5,N   8,H   9)          110.6174         0.339510   
     31. A(C   5,N   8,H   6)          110.8503         0.339723   
     32. A(O   4,C  10,C   5)          112.5204         0.401335   
     33. A(C   5,C  10,O  12)          125.0319         0.437425   
     34. A(O   4,C  10,O  12)          122.4423         0.484551   
     35. D(N   8,C   5,C   1,H   2)     78.4568         0.010691   
     36. D(N   8,C   5,C   1,S   7)   -158.7985         0.010691   
     37. D(H   0,C   5,C   1,H   2)   -164.1911         0.010691   
     38. D(H   0,C   5,C   1,H  11)     75.7096         0.010691   
     39. D(H   0,C   5,C   1,S   7)    -41.4464         0.010691   
     40. D(N   8,C   5,C   1,H  11)    -41.6425         0.010691   
     41. D(H   3,S   7,C   1,H   2)     70.3362         0.010000   
     42. D(H   3,S   7,C   1,H  11)   -172.3600         0.010000   
     43. D(H   3,S   7,C   1,C   5)    -53.7057         0.010000   
     44. D(H   9,N   8,C   5,C   1)    -63.7638         0.017668   
     45. D(H   9,N   8,C   5,H   0)    178.8303         0.017668   
     46. D(H   6,N   8,C   5,C  10)    -60.3652         0.017668   
     47. D(H   6,N   8,C   5,C   1)    176.9077         0.017668   
     48. D(H   6,N   8,C   5,H   0)     59.5017         0.017668   
     49. D(C   5,C  10,O   4,H  13)   -179.5965         0.034759   
     50. D(O  12,C  10,C   5,C   1)    -57.6885         0.010558   
     51. D(O  12,C  10,C   5,H   0)     59.3091         0.010558   
     52. D(O   4,C  10,C   5,N   8)     -1.2132         0.010558   
     53. D(O   4,C  10,C   5,C   1)    121.4732         0.010558   
     54. D(O   4,C  10,C   5,H   0)   -121.5292         0.010558   
     55. D(O  12,C  10,O   4,H  13)     -0.4099         0.034759   
    -----------------------------------------------------------------

Number of atoms                         .... 14
Number of degrees of freedom            .... 55


         *************************************************************
         *                GEOMETRY OPTIMIZATION CYCLE   1            *
         *************************************************************
---------------------------------
CARTESIAN COORDINATES (ANGSTROEM)
---------------------------------
  H     -1.813903    2.862949    1.180688
  C     -3.169642    1.591016    0.102049
  H     -3.137434    0.677874   -0.494501
  H     -3.177808    0.479646    2.183857
  O      0.197275    0.804181    0.043867
  C     -1.756263    2.133190    0.362288
  H     -0.379568    3.234511   -0.664329
  S     -4.101182    1.260480    1.630863
  N     -1.291194    2.820927   -0.822001
  H     -1.205512    2.175143   -1.599603
  C     -0.862303    0.987816    0.836299
  H     -3.736818    2.350218   -0.434519
  O     -1.073090    0.300807    1.802695
  H      0.740708    0.067776    0.366820

----------------------------
CARTESIAN COORDINATES (A.U.)
----------------------------
  NO LB      ZA    FRAG     MASS         X           Y           Z
   0 H     1.0000    0     1.008   -3.427780    5.410190    2.231176
   1 C     6.0000    0    12.011   -5.989754    3.006584    0.192844
   2 H     1.0000    0     1.008   -5.928891    1.280996   -0.934471
   3 H     1.0000    0     1.008   -6.005187    0.906401    4.126892
   4 O     8.0000    0    15.999    0.372796    1.519682    0.082896
   5 C     6.0000    0    12.011   -3.318857    4.031146    0.684626
   6 H     1.0000    0     1.008   -0.717280    6.112341   -1.255399
   7 S    16.0000    0    32.060   -7.750111    2.381962    3.081884
   8 N     7.0000    0    14.007   -2.440004    5.330779   -1.553356
   9 H     1.0000    0     1.008   -2.278087    4.110425   -3.022811
  10 C     6.0000    0    12.011   -1.629517    1.866701    1.580377
  11 H     1.0000    0     1.008   -7.061563    4.441268   -0.821122
  12 O     8.0000    0    15.999   -2.027846    0.568443    3.406600
  13 H     1.0000    0     1.008    1.399736    0.128078    0.693190

--------------------------------
INTERNAL COORDINATES (ANGSTROEM)
--------------------------------
 H      0   0   0     0.000000000000     0.00000000     0.00000000
 C      1   0   0     2.149256272634     0.00000000     0.00000000
 H      2   1   0     1.091208902346   138.67489400     0.00000000
 H      2   1   3     2.359901475342    80.68625638    87.07418167
 O      1   2   3     3.094466907569    80.32085643     2.08946936
 C      1   2   3     1.098019818164    42.75463258    22.62952008
 H      6   1   2     2.040132620005    92.96410506   141.49854212
 S      4   2   1     1.329708046608    50.13269965   104.95743354
 N      7   6   1     1.013397959949    41.49112598   235.08149801
 H      9   7   6     1.014417200460   107.64344217   238.89977072
 C      5   1   2     1.335805786970    34.41910892   297.81227833
 H      2   1   6     1.089027758669    99.39432829   248.70019607
 O     11   5   1     1.204297660834   122.44225817   209.90596720
 H      5   1   2     0.970521030510   138.28710408   252.55194763

---------------------------
INTERNAL COORDINATES (A.U.)
---------------------------
 H      0   0   0     0.000000000000     0.00000000     0.00000000
 C      1   0   0     4.061505746891     0.00000000     0.00000000
 H      2   1   0     2.062085980331   138.67489400     0.00000000
 H      2   1   3     4.459567491433    80.68625638    87.07418167
 O      1   2   3     5.847694985787    80.32085643     2.08946936
 C      1   2   3     2.074956745948    42.75463258    22.62952008
 H      6   1   2     3.855291928689    92.96410506   141.49854212
 S      4   2   1     2.512784046160    50.13269965   104.95743354
 N      7   6   1     1.915044608978    41.49112598   235.08149801
 H      9   7   6     1.916970694409   107.64344217   238.89977072
 C      5   1   2     2.524307105481    34.41910892   297.81227833
 H      2   1   6     2.057964216123    99.39432829   248.70019607
 O     11   5   1     2.275792762698   122.44225817   209.90596720
 H      5   1   2     1.834018954875   138.28710408   252.55194763

---------------------
BASIS SET INFORMATION
---------------------
There are 5 groups of distinct atoms

 Group   1 Type H   : 4s1p contracted to 2s1p pattern {31/1}
 Group   2 Type C   : 10s4p1d contracted to 3s2p1d pattern {631/31/1}
 Group   3 Type O   : 10s4p1d contracted to 3s2p1d pattern {631/31/1}
 Group   4 Type S   : 16s10p1d contracted to 4s3p1d pattern {6631/631/1}
 Group   5 Type N   : 10s4p1d contracted to 3s2p1d pattern {631/31/1}

Atom   0H    basis set group =>   1
Atom   1C    basis set group =>   2
Atom   2H    basis set group =>   1
Atom   3H    basis set group =>   1
Atom   4O    basis set group =>   3
Atom   5C    basis set group =>   2
Atom   6H    basis set group =>   1
Atom   7S    basis set group =>   4
Atom   8N    basis set group =>   5
Atom   9H    basis set group =>   1
Atom  10C    basis set group =>   2
Atom  11H    basis set group =>   1
Atom  12O    basis set group =>   3
Atom  13H    basis set group =>   1
------------------------------------------------------------------------------
                             ORCA STARTUP CALCULATIONS
------------------------------------------------------------------------------
------------------------------------------------------------------------------
                   ___                                                        
                  /   \      - P O W E R E D   B Y -                         
                 /     \                                                     
                 |  |  |   _    _      __       _____    __    __             
                 |  |  |  | |  | |    /  \     |  _  \  |  |  /  |          
                  \  \/   | |  | |   /    \    | | | |  |  | /  /          
                 / \  \   | |__| |  /  /\  \   | |_| |  |  |/  /          
                |  |  |   |  __  | /  /__\  \  |    /   |      \           
                |  |  |   | |  | | |   __   |  |    \   |  |\   \          
                \     /   | |  | | |  |  |  |  | |\  \  |  | \   \       
                 \___/    |_|  |_| |__|  |__|  |_| \__\ |__|  \__/        
                                                                              
                      - O R C A' S   B I G   F R I E N D -                    
                                      &                                       
                       - I N T E G R A L  F E E D E R -                       
                                                                              
 v1 FN, 2020, v2 2021, v3 2022-2024                                           
------------------------------------------------------------------------------


----------------------
SHARK INTEGRAL PACKAGE
----------------------

Number of atoms                             ...     14
Number of basis functions                   ...    137
Number of shells                            ...     65
Maximum angular momentum                    ...      2
Integral batch strategy                     ... SHARK/LIBINT Hybrid
RI-J (if used) integral strategy            ... SPLIT-RIJ (Revised 2003 algorithm where possible)
Printlevel                                  ...      1
Contraction scheme used                     ... SEGMENTED contraction
Prescreening option                         ... SCHWARTZ
   Thresh                                   ... 2.500e-11
   Tcut                                     ... 2.500e-12
   Tpresel                                  ... 2.500e-12 
Coulomb Range Separation                    ... NOT USED
Exchange Range Separation                   ... NOT USED
Multipole approximations                    ... NOT USED
Finite Nucleus Model                        ... NOT USED
CABS basis                                  ... NOT available
Auxiliary Coulomb fitting basis             ... NOT available
Auxiliary J/K fitting basis                 ... NOT available
Auxiliary Correlation fitting basis         ... NOT available
Auxiliary 'external' fitting basis          ... NOT available

Checking pre-screening integrals            ... done (  0.0 sec) Dimension = 65
   => SHARK Basis and OBASIS are compatible. Storing Pre-screening
Shell pair information
Shell pair cut-off parameter TPreSel        ...   2.5e-12
Total number of shell pairs                 ...      2145
Shell pairs after pre-screening             ...      2023
Total number of primitive shell pairs       ...     11826
Primitive shell pairs kept                  ...      7521
          la=0 lb=0:    621 shell pairs
          la=1 lb=0:    743 shell pairs
          la=1 lb=1:    240 shell pairs
          la=2 lb=0:    241 shell pairs
          la=2 lb=1:    150 shell pairs
          la=2 lb=2:     28 shell pairs

Checking whether 4 symmetric matrices of dimension 137 fit in memory
:Max Core in MB      =   4096.00
 MB in use           =      4.11
 MB left             =   4091.89
 MB needed           =      0.29
 Data fit in memory  = YES
Calculating Nuclear repulsion               ... done (  0.0 sec) ENN=    382.083192160866 Eh

Diagonalization of the overlap matrix:
Smallest eigenvalue                        ... 3.102e-03
Time for diagonalization                   ...    0.001 sec
Threshold for overlap eigenvalues          ... 1.000e-07
Number of eigenvalues below threshold      ... 0
Time for construction of square roots      ...    0.000 sec
Total time needed                          ...    0.001 sec

-------------------
DFT GRID GENERATION
-------------------

General Integration Accuracy     IntAcc      ... 4.388
Radial Grid Type                 RadialGrid  ... OptM3 with GC (2021)
Angular Grid (max. ang.)         AngularGrid ... 4 (Lebedev-302)
Angular grid pruning method      GridPruning ... 4 (adaptive)
Weight generation scheme         WeightScheme... mBecke (2022)
Basis function cutoff            BFCut       ... 1.0000e-11
Integration weight cutoff        WCut        ... 1.0000e-14
Partially contracted basis set               ... off
Rotationally invariant grid construction     ... off
Angular grids for H and He will be reduced by one unit

Total number of grid points                  ...    66183
Total number of batches                      ...     1042
Average number of points per batch           ...       63
Average number of grid points per atom       ...     4727
Grids setup in   0.2 sec
Initializing property integral containers    ... done (  0.0 sec)

SHARK setup successfully completed in   0.3 seconds

Maximum memory used throughout the entire STARTUP-calculation: 25.7 MB
-------------------------------------------------------------------------------
                                 ORCA GUESS
                   Start orbitals & Density for SCF / CASSCF
-------------------------------------------------------------------------------

------------
SCF SETTINGS
------------
Hamiltonian:
 Ab initio Hamiltonian  Method          .... Hartree-Fock(GTOs)


General Settings:
 Integral files         IntName         .... 4
 Hartree-Fock type      HFTyp           .... RHF
 Total Charge           Charge          ....    0
 Multiplicity           Mult            ....    1
 Number of Electrons    NEL             ....   64
 Basis Dimension        Dim             ....  137
 Nuclear Repulsion      ENuc            ....    382.0831921609 Eh

Convergence Acceleration:
 AO-DIIS                CNVDIIS         .... on
   Start iteration      DIISMaxIt       ....    12
   Startup error        DIISStart       ....  0.200000
   # of expansion vecs  DIISMaxEq       ....     5
   Bias factor          DIISBfac        ....   1.050
   Max. coefficient     DIISMaxC        ....  10.000
 MO-DIIS                CNVKDIIS        .... off
 Trust-Rad. Augm. Hess. CNVTRAH         .... auto
   Auto Start mean grad. ratio tolernc. ....  1.125000
   Auto Start start iteration           ....    50
   Auto Start num. interpolation iter.  ....    10
   Max. Number of Micro iterations      ....    24
   Max. Number of Macro iterations      .... Maxiter - #DIIS iter
   Number of Davidson start vectors     ....     2
   Converg. threshold    (grad. norm)   ....   1.000e-05
   Grad. Scal. Fac. for Micro threshold ....   0.100
   Minimum threshold for Micro iter.    ....   1.000e-02
   NR start threshold (gradient norm)   ....   1.000e-04
   Initial trust radius                 ....   0.400
   Minimum AH scaling param. (alpha)    ....   1.000
   Maximum AH scaling param. (alpha)    .... 1000.000
   Quad. conv. algorithm                .... NR
   White noise on init. David. guess    .... on
   Maximum white noise                  ....   0.010
   Pseudo random numbers                .... off
   Inactive MOs                         .... canonical
   Orbital update algorithm             .... Taylor
   Preconditioner                       .... Diag
   Full preconditioner red. dimension   ....   250
 SOSCF                 CNVSOSCF           .... on
   Start iteration     SOSCFMaxIt         ....   150
   Startup grad/error  SOSCFStart         ....  0.003300
   Hessian update      SOSCFHessUp        .... L-BFGS
   Autom. constraints  SOSCFAutoConstrain .... off
 Level Shifting         CNVShift        .... on
   Level shift para.    LevelShift      ....    0.2500
   Turn off err/grad.   ShiftErr        ....    0.0010
 Zerner damping         CNVZerner       .... off
 Static damping         CNVDamp         .... on
   Fraction old density DampFac         ....    0.7000
   Max. Damping (<1)    DampMax         ....    0.9800
   Min. Damping (>=0)   DampMin         ....    0.0000
   Turn off err/grad.   DampErr         ....    0.1000

SCF Procedure:
 Maximum # iterations   MaxIter         ....   125
 SCF integral mode      SCFMode         .... Direct
   Integral package                     .... SHARK and LIBINT hybrid scheme
 Reset frequency        DirectResetFreq ....    20
 Integral Threshold     Thresh          ....  2.500e-11 Eh
 Primitive CutOff       TCut            ....  2.500e-12 Eh

Convergence Tolerance:
 Convergence Check Mode ConvCheckMode   .... Total+1el-Energy
 Convergence forced     ConvForced      .... 1
 Energy Change          TolE            ....  1.000e-08 Eh
 1-El. energy change                    ....  1.000e-05 Eh
 Orbital Gradient       TolG            ....  1.000e-05
 Orbital Rotation angle TolX            ....  1.000e-05
 DIIS Error             TolErr          ....  5.000e-07

------------------------------
INITIAL GUESS: MODEL POTENTIAL
------------------------------
Loading Hartree-Fock densities                     ... done
Calculating cut-offs                               ... done
Initializing the effective Hamiltonian             ... done
Setting up the integral package (SHARK)            ... done
Starting the Coulomb interaction                   ... done (   0.0 sec)
Making the grid                                    ... done (   0.1 sec)
Mapping shells                                     ... done
Starting the XC term evaluation                    ... done (   0.0 sec)
Transforming the Hamiltonian                       ... done (   0.0 sec)
Diagonalizing the Hamiltonian                      ... done (   0.0 sec)
Back transforming the eigenvectors                 ... done (   0.0 sec)
Now organizing SCF variables                       ... done
                      ------------------
                      INITIAL GUESS DONE (   0.1 sec)
                      ------------------
             **** ENERGY FILE WAS UPDATED (4.en.tmp) ****
Finished Guess after   0.1 sec
Maximum memory used throughout the entire GUESS-calculation: 8.3 MB

-------------------------------------------------------------------------------------------
                                      ORCA LEAN-SCF
                              memory conserving SCF solver
-------------------------------------------------------------------------------------------

----------------------------------------D-I-I-S--------------------------------------------
Iteration    Energy (Eh)           Delta-E    RMSDP     MaxDP     DIISErr   Damp  Time(sec)
-------------------------------------------------------------------------------------------
               ***  Starting incremental Fock matrix formation  ***
    1    -719.1066852987892162     0.00e+00  2.84e-03  6.31e-02  2.44e-01  0.700   0.8
    2    -719.2071412049210721    -1.00e-01  2.13e-03  4.52e-02  1.50e-01  0.700   0.8
                               ***Turning on AO-DIIS***
    3    -719.2653928667482433    -5.83e-02  1.18e-03  2.93e-02  8.28e-02  0.700   0.8
    4    -719.3021806262852351    -3.68e-02  2.71e-03  6.95e-02  5.48e-02  0.000   0.8
    5    -719.3846442416484024    -8.25e-02  3.22e-04  4.32e-03  4.31e-03  0.000   0.8
                              *** Initializing SOSCF ***
---------------------------------------S-O-S-C-F--------------------------------------
Iteration    Energy (Eh)           Delta-E    RMSDP     MaxDP     MaxGrad    Time(sec)
--------------------------------------------------------------------------------------
    6    -719.3850364784066187    -3.92e-04  1.59e-04  1.99e-03  2.03e-03     0.7
               *** Restarting incremental Fock matrix formation ***
    7    -719.3851236856348805    -8.72e-05  9.50e-05  1.35e-03  1.58e-03     0.8
    8    -719.3851499422175948    -2.63e-05  1.03e-04  1.54e-03  3.85e-04     0.7
    9    -719.3851590869112442    -9.14e-06  1.94e-05  3.19e-04  1.73e-04     0.7
   10    -719.3851599097317830    -8.23e-07  7.36e-06  1.13e-04  4.69e-05     0.7
   11    -719.3851600086861708    -9.90e-08  2.96e-06  5.46e-05  1.91e-05     0.6
   12    -719.3851600215514281    -1.29e-08  6.90e-07  1.52e-05  6.29e-06     0.6
   13    -719.3851600229731957    -1.42e-09  1.83e-07  2.97e-06  1.03e-06     0.5
                 **** Energy Check signals convergence ****

               *****************************************************
               *                     SUCCESS                       *
               *           SCF CONVERGED AFTER  13 CYCLES          *
               *****************************************************

             **** ENERGY FILE WAS UPDATED (4.en.tmp) ****

----------------
TOTAL SCF ENERGY
----------------

Total Energy       :       -719.38516002376900 Eh          -19575.46540 eV

Components:
Nuclear Repulsion  :        382.08319216086585 Eh           10397.01223 eV
Electronic Energy  :      -1101.46835218463480 Eh          -29972.47763 eV
One Electron Energy:      -1748.89520526062825 Eh          -47589.85796 eV
Two Electron Energy:        647.42685307599345 Eh           17617.38032 eV

Virial components:
Potential Energy   :      -1438.49535709188945 Eh          -39143.44868 eV
Kinetic Energy     :        719.11019706812044 Eh           19567.98328 eV
Virial Ratio       :          2.00038236553559

---------------
SCF CONVERGENCE
---------------

  Last Energy change         ...    1.4218e-09  Tolerance :   1.0000e-08
  Last MAX-Density change    ...    2.9657e-06  Tolerance :   1.0000e-07
  Last RMS-Density change    ...    1.8295e-07  Tolerance :   5.0000e-09
  Last DIIS Error            ...    2.0304e-03  Tolerance :   5.0000e-07
  Last Orbital Gradient      ...    1.0255e-06  Tolerance :   1.0000e-05
  Last Orbital Rotation      ...    1.5546e-06  Tolerance :   1.0000e-05


----------------
ORBITAL ENERGIES
----------------

  NO   OCC          E(Eh)            E(eV) 
   0   2.0000     -91.921681     -2501.3161 
   1   2.0000     -20.633929      -561.4778 
   2   2.0000     -20.567691      -559.6753 
   3   2.0000     -15.560516      -423.4232 
   4   2.0000     -11.399797      -310.2042 
   5   2.0000     -11.290480      -307.2296 
   6   2.0000     -11.269437      -306.6570 
   7   2.0000      -8.938722      -243.2350 
   8   2.0000      -6.620931      -180.1647 
   9   2.0000      -6.619644      -180.1297 
  10   2.0000      -6.617512      -180.0717 
  11   2.0000      -1.485346       -40.4183 
  12   2.0000      -1.377760       -37.4908 
  13   2.0000      -1.213889       -33.0316 
  14   2.0000      -1.060978       -28.8707 
  15   2.0000      -0.958031       -26.0693 
  16   2.0000      -0.875204       -23.8155 
  17   2.0000      -0.818012       -22.2592 
  18   2.0000      -0.722096       -19.6492 
  19   2.0000      -0.711662       -19.3653 
  20   2.0000      -0.684667       -18.6307 
  21   2.0000      -0.640368       -17.4253 
  22   2.0000      -0.620465       -16.8837 
  23   2.0000      -0.604446       -16.4478 
  24   2.0000      -0.568099       -15.4587 
  25   2.0000      -0.539332       -14.6760 
  26   2.0000      -0.527340       -14.3496 
  27   2.0000      -0.489585       -13.3223 
  28   2.0000      -0.482962       -13.1421 
  29   2.0000      -0.449067       -12.2197 
  30   2.0000      -0.402460       -10.9515 
  31   2.0000      -0.348642        -9.4870 
  32   0.0000       0.163510         4.4493 
  33   0.0000       0.189073         5.1449 
  34   0.0000       0.211072         5.7436 
  35   0.0000       0.237379         6.4594 
  36   0.0000       0.257721         7.0130 
  37   0.0000       0.266306         7.2466 
  38   0.0000       0.286692         7.8013 
  39   0.0000       0.300930         8.1887 
  40   0.0000       0.319112         8.6835 
  41   0.0000       0.376183        10.2365 
  42   0.0000       0.411469        11.1966 
*Only the first 10 virtual orbitals were printed.

                    ********************************
                    * MULLIKEN POPULATION ANALYSIS *
                    ********************************

-----------------------
MULLIKEN ATOMIC CHARGES
-----------------------
   0 H :    0.189784
   1 C :   -0.382873
   2 H :    0.150651
   3 H :    0.101936
   4 O :   -0.635705
   5 C :   -0.046390
   6 H :    0.282514
   7 S :   -0.034580
   8 N :   -0.677753
   9 H :    0.276071
  10 C :    0.800678
  11 H :    0.187299
  12 O :   -0.587765
  13 H :    0.376132
Sum of atomic charges:   -0.0000000

--------------------------------
MULLIKEN REDUCED ORBITAL CHARGES
--------------------------------
  0 H s       :     0.797859  s :     0.797859
      pz      :     0.005781  p :     0.012357
      px      :     0.001581
      py      :     0.004995

  1 C s       :     3.310558  s :     3.310558
      pz      :     0.989145  p :     3.024461
      px      :     0.927334
      py      :     1.107982
      dz2     :     0.007096  d :     0.047853
      dxz     :     0.009213
      dyz     :     0.012593
      dx2y2   :     0.009657
      dxy     :     0.009294

  2 H s       :     0.836599  s :     0.836599
      pz      :     0.003964  p :     0.012749
      px      :     0.001565
      py      :     0.007220

  3 H s       :     0.878926  s :     0.878926
      pz      :     0.003715  p :     0.019138
      px      :     0.008553
      py      :     0.006870

  4 O s       :     3.834064  s :     3.834064
      pz      :     1.707653  p :     4.776027
      px      :     1.446827
      py      :     1.621547
      dz2     :     0.004161  d :     0.025614
      dxz     :     0.008910
      dyz     :     0.004743
      dx2y2   :     0.003910
      dxy     :     0.003891

  5 C s       :     3.209468  s :     3.209468
      pz      :     0.940272  p :     2.766410
      px      :     0.907925
      py      :     0.918213
      dz2     :     0.013077  d :     0.070513
      dxz     :     0.011446
      dyz     :     0.020920
      dx2y2   :     0.009588
      dxy     :     0.015482

  6 H s       :     0.691261  s :     0.691261
      pz      :     0.003810  p :     0.026224
      px      :     0.013909
      py      :     0.008506

  7 S s       :     5.839605  s :     5.839605
      pz      :     3.081248  p :    10.126078
      px      :     3.411016
      py      :     3.633813
      dz2     :     0.012072  d :     0.068897
      dxz     :     0.027679
      dyz     :     0.008585
      dx2y2   :     0.003084
      dxy     :     0.017476

  8 N s       :     3.598091  s :     3.598091
      pz      :     1.148842  p :     4.045422
      px      :     1.426260
      py      :     1.470320
      dz2     :     0.006230  d :     0.034239
      dxz     :     0.003012
      dyz     :     0.013804
      dx2y2   :     0.007849
      dxy     :     0.003343

  9 H s       :     0.697771  s :     0.697771
      pz      :     0.011655  p :     0.026158
      px      :     0.005283
      py      :     0.009220

 10 C s       :     2.951571  s :     2.951571
      pz      :     0.663043  p :     2.101380
      px      :     0.675297
      py      :     0.763041
      dz2     :     0.033176  d :     0.146371
      dxz     :     0.040496
      dyz     :     0.026102
      dx2y2   :     0.024615
      dxy     :     0.021981

 11 H s       :     0.799736  s :     0.799736
      pz      :     0.003758  p :     0.012966
      px      :     0.003509
      py      :     0.005698

 12 O s       :     3.875160  s :     3.875160
      pz      :     1.417323  p :     4.680281
      px      :     1.721702
      py      :     1.541256
      dz2     :     0.011575  d :     0.032323
      dxz     :     0.005416
      dyz     :     0.008478
      dx2y2   :     0.003121
      dxy     :     0.003733

 13 H s       :     0.582368  s :     0.582368
      pz      :     0.009052  p :     0.041500
      px      :     0.013402
      py      :     0.019047



                     *******************************
                     * LOEWDIN POPULATION ANALYSIS *
                     *******************************

----------------------
LOEWDIN ATOMIC CHARGES
----------------------
   0 H :    0.097319
   1 C :   -0.206975
   2 H :    0.072384
   3 H :    0.052073
   4 O :   -0.205550
   5 C :   -0.034497
   6 H :    0.133083
   7 S :    0.012194
   8 N :   -0.274702
   9 H :    0.130937
  10 C :    0.234478
  11 H :    0.096064
  12 O :   -0.310140
  13 H :    0.203333

-------------------------------
LOEWDIN REDUCED ORBITAL CHARGES
-------------------------------
  0 H s       :     0.862589  s :     0.862589
      pz      :     0.017795  p :     0.040093
      px      :     0.006558
      py      :     0.015740

  1 C s       :     2.941095  s :     2.941095
      pz      :     1.052079  p :     3.177268
      px      :     1.020958
      py      :     1.104231
      dz2     :     0.013794  d :     0.088611
      dxz     :     0.018455
      dyz     :     0.020999
      dx2y2   :     0.018187
      dxy     :     0.017177

  2 H s       :     0.885626  s :     0.885626
      pz      :     0.013869  p :     0.041991
      px      :     0.006250
      py      :     0.021871

  3 H s       :     0.895004  s :     0.895004
      pz      :     0.010011  p :     0.052923
      px      :     0.023730
      py      :     0.019182

  4 O s       :     3.457395  s :     3.457395
      pz      :     1.683767  p :     4.699607
      px      :     1.433913
      py      :     1.581928
      dz2     :     0.007132  d :     0.048548
      dxz     :     0.016318
      dyz     :     0.006506
      dx2y2   :     0.008024
      dxy     :     0.010568

  5 C s       :     2.873268  s :     2.873268
      pz      :     0.996835  p :     3.019698
      px      :     1.012036
      py      :     1.010826
      dz2     :     0.025474  d :     0.141532
      dxz     :     0.023361
      dyz     :     0.040841
      dx2y2   :     0.020032
      dxy     :     0.031823

  6 H s       :     0.784735  s :     0.784735
      pz      :     0.012274  p :     0.082182
      px      :     0.043886
      py      :     0.026021

  7 S s       :     5.619948  s :     5.619948
      pz      :     3.163015  p :    10.291489
      px      :     3.482164
      py      :     3.646310
      dz2     :     0.014065  d :     0.076369
      dxz     :     0.031140
      dyz     :     0.010179
      dx2y2   :     0.003221
      dxy     :     0.017764

  8 N s       :     3.181751  s :     3.181751
      pz      :     1.176609  p :     4.031417
      px      :     1.400164
      py      :     1.454644
      dz2     :     0.014267  d :     0.061533
      dxz     :     0.006606
      dyz     :     0.023694
      dx2y2   :     0.010263
      dxy     :     0.006703

  9 H s       :     0.787162  s :     0.787162
      pz      :     0.034741  p :     0.081901
      px      :     0.016977
      py      :     0.030183

 10 C s       :     2.851130  s :     2.851130
      pz      :     0.875869  p :     2.597436
      px      :     0.833106
      py      :     0.888461
      dz2     :     0.068733  d :     0.316956
      dxz     :     0.093521
      dyz     :     0.056708
      dx2y2   :     0.052973
      dxy     :     0.045021

 11 H s       :     0.861413  s :     0.861413
      pz      :     0.012596  p :     0.042524
      px      :     0.012099
      py      :     0.017829

 12 O s       :     3.547366  s :     3.547366
      pz      :     1.469979  p :     4.705624
      px      :     1.682593
      py      :     1.553052
      dz2     :     0.016332  d :     0.057150
      dxz     :     0.009633
      dyz     :     0.019974
      dx2y2   :     0.005938
      dxy     :     0.005273

 13 H s       :     0.676130  s :     0.676130
      pz      :     0.028759  p :     0.120536
      px      :     0.037582
      py      :     0.054195



                      *****************************
                      * MAYER POPULATION ANALYSIS *
                      *****************************

  NA   - Mulliken gross atomic population
  ZA   - Total nuclear charge
  QA   - Mulliken gross atomic charge
  VA   - Mayer's total valence
  BVA  - Mayer's bonded valence
  FA   - Mayer's free valence

  ATOM       NA         ZA         QA         VA         BVA        FA
  0 H      0.8102     1.0000     0.1898     0.9347     0.9347     0.0000
  1 C      6.3829     6.0000    -0.3829     3.7893     3.7893    -0.0000
  2 H      0.8493     1.0000     0.1507     0.9334     0.9334     0.0000
  3 H      0.8981     1.0000     0.1019     0.9704     0.9704     0.0000
  4 O      8.6357     8.0000    -0.6357     1.8513     1.8513    -0.0000
  5 C      6.0464     6.0000    -0.0464     3.7435     3.7435     0.0000
  6 H      0.7175     1.0000     0.2825     0.9028     0.9028     0.0000
  7 S     16.0346    16.0000    -0.0346     1.8983     1.8983    -0.0000
  8 N      7.6778     7.0000    -0.6778     2.7574     2.7574     0.0000
  9 H      0.7239     1.0000     0.2761     0.9055     0.9055    -0.0000
 10 C      5.1993     6.0000     0.8007     3.6638     3.6638    -0.0000
 11 H      0.8127     1.0000     0.1873     0.9360     0.9360    -0.0000
 12 O      8.5878     8.0000    -0.5878     1.8664     1.8664     0.0000
 13 H      0.6239     1.0000     0.3761     0.8690     0.8690    -0.0000

  Mayer bond orders larger than 0.100000
B(  0-H ,  5-C ) :   0.9519 B(  1-C ,  2-H ) :   0.9561 B(  1-C ,  5-C ) :   0.9473 
B(  1-C ,  7-S ) :   0.9714 B(  1-C , 11-H ) :   0.9546 B(  3-H ,  7-S ) :   0.9444 
B(  4-O , 10-C ) :   0.9911 B(  4-O , 13-H ) :   0.8371 B(  5-C ,  8-N ) :   0.9761 
B(  5-C , 10-C ) :   0.9114 B(  6-H ,  8-N ) :   0.9056 B(  8-N ,  9-H ) :   0.9041 
B( 10-C , 12-O ) :   1.7871 

-------
TIMINGS
-------

Total SCF time: 0 days 0 hours 0 min 9 sec 

Total time                  ....       9.808 sec
Sum of individual times     ....       9.327 sec  ( 95.1%)

SCF preparation             ....       0.014 sec  (  0.1%)
Fock matrix formation       ....       9.284 sec  ( 94.7%)
  Startup                   ....       0.000 sec  (  0.0% of F)
  Coulomb+Exchange Fock     ....       9.755 sec  (105.1% of F)
Diagonalization             ....       0.000 sec  (  0.0%)
Density matrix formation    ....       0.003 sec  (  0.0%)
Total Energy calculation    ....       0.001 sec  (  0.0%)
Population analysis         ....       0.002 sec  (  0.0%)
Orbital Transformation      ....       0.003 sec  (  0.0%)
Orbital Orthonormalization  ....       0.000 sec  (  0.0%)
DIIS solution               ....       0.012 sec  (  0.1%)
SOSCF solution              ....       0.008 sec  (  0.1%)
Finished LeanSCF after   9.8 sec

Maximum memory used throughout the entire LEANSCF-calculation: 11.9 MB

------------------------------------------------------------------------------
                                ORCA  MP2 
------------------------------------------------------------------------------

Freezing NCore=22 chemical core electrons
MP2 will be done in the AO integral direct mode
The Q1-step will be done using symmetric double matrices
Dimension of the basis                    ...  137
Memory devoted for MP2                    ... 4096 MB   
Memory needed for all in one shot         ...  208 MB
Number of MOs that can be treated together...  413      
MP2 density construction                  ... relaxed
The MP2 gradient is requested => amplitudes will be stored on disk
Total number of MOs              ...   21
Number of MOs treated per batch  ...   21 
Number of batches necessary      ...    1 
OPERATORS   0/  0 PASS   0
-----------------------------------------------
 MP2 CORRELATION ENERGY   :     -1.055959024 Eh
-----------------------------------------------


---------------------
MP2 DENSITY FORMATION
---------------------

Completing the external part of the density      ... done
Storing the unrelaxed density                    ... done

Calculating G(D)                                 ... done
Completing the Lagrangian                        ... done
Solving the Z-vector equations                   ... 
-------------------
SHARK CP-SCF DRIVER
-------------------

Dimension of the orbital basis          ...    137
Dimension of the CPSCF-problem          ...   3360
Number of operators                     ...      1
Max. number of iterations               ...    128
Convergence Tolerance                   ... 1.0e-04
Number of perturbations                 ...      1
Perturbation type                       ... REAL

----------------------------
POPLE LINEAR EQUATION SOLVER
----------------------------

  ITERATION   0:   ||err||_max =   1.2586e-01 (   1.0 sec)
  ITERATION   1:   ||err||_max =   3.1285e-02 (   1.0 sec)
  ITERATION   2:   ||err||_max =   1.3439e-02 (   1.0 sec)
  ITERATION   3:   ||err||_max =   3.5944e-03 (   1.0 sec)
  ITERATION   4:   ||err||_max =   1.1662e-03 (   1.1 sec)
  ITERATION   5:   ||err||_max =   3.2993e-04 (   1.1 sec)
  ITERATION   6:   ||err||_max =   1.1128e-04 (   1.1 sec)
  ITERATION   7:   ||err||_max =   4.2727e-05 (   1.1 sec)
                                                 ... done
Finalizing the relaxed density                   ... done
Transforming P to the AO basis                   ... done
Storing the relaxed density                      ... done

------------------------------------
ENERGY WEIGHTED DENSITY FINALIZATION
------------------------------------

Gathering the parts of the W-matrix              ...                                                      done
Forming the Z-density                            ... done
Transforming Z to the AO basis                   ... done
Calculating G(Z)                                 ... done
Finalizing the W-matrix                          ...                                                      done
Transforming W to the AO basis and storing       ... done

                *********************************************
                * UNRELAXED MP2 DENSITY POPULATION ANALYSIS *
                *********************************************

------------------------------------------------------------------------------
                           ORCA POPULATION ANALYSIS
------------------------------------------------------------------------------
Input electron density              ... 4.pmp2ur
BaseName (.gbw .S,...)              ... 4

                    ********************************
                    * MULLIKEN POPULATION ANALYSIS *
                    ********************************

-----------------------
MULLIKEN ATOMIC CHARGES
-----------------------
   0 H :    0.190198
   1 C :   -0.385641
   2 H :    0.151240
   3 H :    0.100951
   4 O :   -0.621886
   5 C :   -0.052439
   6 H :    0.281268
   7 S :   -0.031623
   8 N :   -0.670407
   9 H :    0.274768
  10 C :    0.767580
  11 H :    0.187571
  12 O :   -0.564507
  13 H :    0.372927
Sum of atomic charges:    0.0000000

--------------------------------
MULLIKEN REDUCED ORBITAL CHARGES
--------------------------------
  0 H s       :     0.794830  s :     0.794830
      pz      :     0.006561  p :     0.014972
      px      :     0.002604
      py      :     0.005807
  1 C s       :     3.306408  s :     3.306408
      pz      :     0.985711  p :     3.015269
      px      :     0.925150
      py      :     1.104409
      dz2     :     0.010378  d :     0.063964
      dxz     :     0.012443
      dyz     :     0.015710
      dx2y2   :     0.012835
      dxy     :     0.012598
  2 H s       :     0.833298  s :     0.833298
      pz      :     0.004884  p :     0.015462
      px      :     0.002623
      py      :     0.007956
  3 H s       :     0.877061  s :     0.877061
      pz      :     0.004715  p :     0.021988
      px      :     0.009455
      py      :     0.007817
  4 O s       :     3.829822  s :     3.829822
      pz      :     1.695704  p :     4.743438
      px      :     1.437116
      py      :     1.610618
      dz2     :     0.008820  d :     0.048627
      dxz     :     0.013310
      dyz     :     0.009301
      dx2y2   :     0.008546
      dxy     :     0.008649
  5 C s       :     3.206561  s :     3.206561
      pz      :     0.939008  p :     2.759901
      px      :     0.904943
      py      :     0.915951
      dz2     :     0.016048  d :     0.085978
      dxz     :     0.014733
      dyz     :     0.023720
      dx2y2   :     0.013097
      dxy     :     0.018381
  6 H s       :     0.690515  s :     0.690515
      pz      :     0.004645  p :     0.028218
      px      :     0.014345
      py      :     0.009228
  7 S s       :     5.830998  s :     5.830998
      pz      :     3.076413  p :    10.091770
      px      :     3.397305
      py      :     3.618052
      dz2     :     0.019802  d :     0.108854
      dxz     :     0.034858
      dyz     :     0.016691
      dx2y2   :     0.011762
      dxy     :     0.025742
  8 N s       :     3.593488  s :     3.593488
      pz      :     1.142663  p :     4.020694
      px      :     1.417236
      py      :     1.460795
      dz2     :     0.010550  d :     0.056225
      dxz     :     0.007457
      dyz     :     0.017866
      dx2y2   :     0.012389
      dxy     :     0.007963
  9 H s       :     0.697042  s :     0.697042
      pz      :     0.012136  p :     0.028190
      px      :     0.006159
      py      :     0.009895
 10 C s       :     2.953125  s :     2.953125
      pz      :     0.670160  p :     2.122438
      px      :     0.683343
      py      :     0.768935
      dz2     :     0.035109  d :     0.156858
      dxz     :     0.042409
      dyz     :     0.028214
      dx2y2   :     0.027053
      dxy     :     0.024072
 11 H s       :     0.796873  s :     0.796873
      pz      :     0.004653  p :     0.015555
      px      :     0.004431
      py      :     0.006471
 12 O s       :     3.870629  s :     3.870629
      pz      :     1.405948  p :     4.639726
      px      :     1.706156
      py      :     1.527622
      dz2     :     0.015793  d :     0.054152
      dxz     :     0.009976
      dyz     :     0.012539
      dx2y2   :     0.007639
      dxy     :     0.008206
 13 H s       :     0.584445  s :     0.584445
      pz      :     0.009635  p :     0.042628
      px      :     0.013733
      py      :     0.019260


                     *******************************
                     * LOEWDIN POPULATION ANALYSIS *
                     *******************************

----------------------
LOEWDIN ATOMIC CHARGES
----------------------
   0 H :    0.097324
   1 C :   -0.210038
   2 H :    0.072555
   3 H :    0.050490
   4 O :   -0.196824
   5 C :   -0.038262
   6 H :    0.132402
   7 S :    0.016704
   8 N :   -0.270494
   9 H :    0.130208
  10 C :    0.209999
  11 H :    0.096083
  12 O :   -0.291152
  13 H :    0.201005

-------------------------------
LOEWDIN REDUCED ORBITAL CHARGES
-------------------------------
  0 H s       :     0.857947  s :     0.857947
      pz      :     0.019509  p :     0.044728
      px      :     0.007903
      py      :     0.017316
  1 C s       :     2.940894  s :     2.940894
      pz      :     1.047441  p :     3.162125
      px      :     1.015931
      py      :     1.098752
      dz2     :     0.017359  d :     0.107019
      dxz     :     0.022068
      dyz     :     0.024795
      dx2y2   :     0.021872
      dxy     :     0.020925
  2 H s       :     0.880806  s :     0.880806
      pz      :     0.015417  p :     0.046639
      px      :     0.007533
      py      :     0.023690
  3 H s       :     0.892802  s :     0.892802
      pz      :     0.011253  p :     0.056708
      px      :     0.025059
      py      :     0.020396
  4 O s       :     3.455467  s :     3.455467
      pz      :     1.672400  p :     4.668296
      px      :     1.424578
      py      :     1.571318
      dz2     :     0.011877  d :     0.073061
      dxz     :     0.021460
      dyz     :     0.011204
      dx2y2   :     0.012871
      dxy     :     0.015648
  5 C s       :     2.873674  s :     2.873674
      pz      :     0.992614  p :     3.005207
      px      :     1.006527
      py      :     1.006066
      dz2     :     0.028832  d :     0.159380
      dxz     :     0.026932
      dyz     :     0.044460
      dx2y2   :     0.023960
      dxy     :     0.035196
  6 H s       :     0.781749  s :     0.781749
      pz      :     0.013319  p :     0.085848
      px      :     0.045554
      py      :     0.026976
  7 S s       :     5.612088  s :     5.612088
      pz      :     3.155870  p :    10.252400
      px      :     3.466570
      py      :     3.629960
      dz2     :     0.022257  d :     0.118809
      dxz     :     0.038941
      dyz     :     0.018884
      dx2y2   :     0.012106
      dxy     :     0.026621
  8 N s       :     3.179958  s :     3.179958
      pz      :     1.169587  p :     4.005073
      px      :     1.390704
      py      :     1.444782
      dz2     :     0.018947  d :     0.085463
      dxz     :     0.011222
      dyz     :     0.028540
      dx2y2   :     0.015121
      dxy     :     0.011632
  9 H s       :     0.784199  s :     0.784199
      pz      :     0.036131  p :     0.085593
      px      :     0.017942
      py      :     0.031521
 10 C s       :     2.851831  s :     2.851831
      pz      :     0.880002  p :     2.609822
      px      :     0.837720
      py      :     0.892100
      dz2     :     0.070481  d :     0.328349
      dxz     :     0.095352
      dyz     :     0.059844
      dx2y2   :     0.055421
      dxy     :     0.047250
 11 H s       :     0.856916  s :     0.856916
      pz      :     0.014042  p :     0.047001
      px      :     0.013582
      py      :     0.019377
 12 O s       :     3.544310  s :     3.544310
      pz      :     1.458140  p :     4.665280
      px      :     1.667668
      py      :     1.539473
      dz2     :     0.021319  d :     0.081562
      dxz     :     0.014449
      dyz     :     0.025174
      dx2y2   :     0.010672
      dxy     :     0.009948
 13 H s       :     0.676039  s :     0.676039
      pz      :     0.029572  p :     0.122956
      px      :     0.038290
      py      :     0.055095


                      *****************************
                      * MAYER POPULATION ANALYSIS *
                      *****************************

  NA   - Mulliken gross atomic population
  ZA   - Total nuclear charge
  QA   - Mulliken gross atomic charge
  VA   - Mayer's total valence
  BVA  - Mayer's bonded valence
  FA   - Mayer's free valence

  ATOM       NA         ZA         QA         VA         BVA        FA
  0 H      0.8098     1.0000     0.1902     0.9424     0.8954     0.0470
  1 C      6.3856     6.0000    -0.3856     3.8822     3.5918     0.2904
  2 H      0.8488     1.0000     0.1512     0.9421     0.8942     0.0479
  3 H      0.8990     1.0000     0.1010     0.9788     0.9253     0.0535
  4 O      8.6219     8.0000    -0.6219     2.1099     1.7527     0.3571
  5 C      6.0524     6.0000    -0.0524     3.8205     3.5405     0.2801
  6 H      0.7187     1.0000     0.2813     0.9097     0.8647     0.0450
  7 S     16.0316    16.0000    -0.0316     2.1478     1.7843     0.3635
  8 N      7.6704     7.0000    -0.6704     2.9497     2.6256     0.3241
  9 H      0.7252     1.0000     0.2748     0.9127     0.8674     0.0453
 10 C      5.2324     6.0000     0.7676     3.7270     3.4378     0.2892
 11 H      0.8124     1.0000     0.1876     0.9436     0.8974     0.0463
 12 O      8.5645     8.0000    -0.5645     2.1345     1.7348     0.3998
 13 H      0.6271     1.0000     0.3729     0.8759     0.8319     0.0440

  Mayer bond orders larger than 0.100000
B(  0-H ,  5-C ) :   0.9149 B(  1-C ,  2-H ) :   0.9182 B(  1-C ,  5-C ) :   0.8932 
B(  1-C ,  7-S ) :   0.9054 B(  1-C , 11-H ) :   0.9175 B(  3-H ,  7-S ) :   0.9005 
B(  4-O , 10-C ) :   0.9369 B(  4-O , 13-H ) :   0.8025 B(  5-C ,  8-N ) :   0.9201 
B(  5-C , 10-C ) :   0.8618 B(  6-H ,  8-N ) :   0.8691 B(  8-N ,  9-H ) :   0.8674 
B( 10-C , 12-O ) :   1.6693 


                *******************************************
                * RELAXED MP2 DENSITY POPULATION ANALYSIS *
                *******************************************

------------------------------------------------------------------------------
                           ORCA POPULATION ANALYSIS
------------------------------------------------------------------------------
Input electron density              ... 4.pmp2re
BaseName (.gbw .S,...)              ... 4

                    ********************************
                    * MULLIKEN POPULATION ANALYSIS *
                    ********************************

-----------------------
MULLIKEN ATOMIC CHARGES
-----------------------
   0 H :    0.172925
   1 C :   -0.357484
   2 H :    0.141201
   3 H :    0.093827
   4 O :   -0.521341
   5 C :   -0.066634
   6 H :    0.265840
   7 S :   -0.040563
   8 N :   -0.612695
   9 H :    0.259444
  10 C :    0.575141
  11 H :    0.174766
  12 O :   -0.432065
  13 H :    0.347638
Sum of atomic charges:    0.0000000

--------------------------------
MULLIKEN REDUCED ORBITAL CHARGES
--------------------------------
  0 H s       :     0.812986  s :     0.812986
      pz      :     0.005963  p :     0.014089
      px      :     0.002823
      py      :     0.005303
  1 C s       :     3.286304  s :     3.286304
      pz      :     0.977925  p :     3.012577
      px      :     0.936536
      py      :     1.098116
      dz2     :     0.009472  d :     0.058604
      dxz     :     0.011233
      dyz     :     0.014581
      dx2y2   :     0.011556
      dxy     :     0.011762
  2 H s       :     0.844066  s :     0.844066
      pz      :     0.004690  p :     0.014733
      px      :     0.002869
      py      :     0.007174
  3 H s       :     0.884712  s :     0.884712
      pz      :     0.004801  p :     0.021461
      px      :     0.009010
      py      :     0.007650
  4 O s       :     3.811491  s :     3.811491
      pz      :     1.671480  p :     4.662676
      px      :     1.416014
      py      :     1.575182
      dz2     :     0.009135  d :     0.047175
      dxz     :     0.011903
      dyz     :     0.009201
      dx2y2   :     0.008027
      dxy     :     0.008909
  5 C s       :     3.187770  s :     3.187770
      pz      :     0.943042  p :     2.800006
      px      :     0.924266
      py      :     0.932698
      dz2     :     0.014447  d :     0.078858
      dxz     :     0.013942
      dyz     :     0.021822
      dx2y2   :     0.012770
      dxy     :     0.015877
  6 H s       :     0.707057  s :     0.707057
      pz      :     0.004927  p :     0.027103
      px      :     0.013042
      py      :     0.009135
  7 S s       :     5.834855  s :     5.834855
      pz      :     3.100332  p :    10.105768
      px      :     3.387580
      py      :     3.617856
      dz2     :     0.017985  d :     0.099940
      dxz     :     0.030290
      dyz     :     0.015780
      dx2y2   :     0.011957
      dxy     :     0.023928
  8 N s       :     3.573839  s :     3.573839
      pz      :     1.136802  p :     3.985587
      px      :     1.396779
      py      :     1.452006
      dz2     :     0.010045  d :     0.053269
      dxz     :     0.007252
      dyz     :     0.016082
      dx2y2   :     0.011950
      dxy     :     0.007940
  9 H s       :     0.713483  s :     0.713483
      pz      :     0.011099  p :     0.027073
      px      :     0.006513
      py      :     0.009460
 10 C s       :     2.975621  s :     2.975621
      pz      :     0.727458  p :     2.301976
      px      :     0.750288
      py      :     0.824230
      dz2     :     0.032288  d :     0.147261
      dxz     :     0.040372
      dyz     :     0.026740
      dx2y2   :     0.025973
      dxy     :     0.021888
 11 H s       :     0.810460  s :     0.810460
      pz      :     0.004542  p :     0.014774
      px      :     0.004261
      py      :     0.005972
 12 O s       :     3.846977  s :     3.846977
      pz      :     1.388448  p :     4.533676
      px      :     1.652133
      py      :     1.493095
      dz2     :     0.014389  d :     0.051412
      dxz     :     0.009954
      dyz     :     0.011667
      dx2y2   :     0.007520
      dxy     :     0.007881
 13 H s       :     0.611574  s :     0.611574
      pz      :     0.009797  p :     0.040787
      px      :     0.013110
      py      :     0.017881


                     *******************************
                     * LOEWDIN POPULATION ANALYSIS *
                     *******************************

----------------------
LOEWDIN ATOMIC CHARGES
----------------------
   0 H :    0.096796
   1 C :   -0.216013
   2 H :    0.073454
   3 H :    0.049492
   4 O :   -0.160819
   5 C :   -0.057459
   6 H :    0.131027
   7 S :    0.016776
   8 N :   -0.259923
   9 H :    0.128581
  10 C :    0.127736
  11 H :    0.096363
  12 O :   -0.217534
  13 H :    0.191524

-------------------------------
LOEWDIN REDUCED ORBITAL CHARGES
-------------------------------
  0 H s       :     0.858965  s :     0.858965
      pz      :     0.019114  p :     0.044239
      px      :     0.008205
      py      :     0.016920
  1 C s       :     2.942591  s :     2.942591
      pz      :     1.049730  p :     3.171179
      px      :     1.019366
      py      :     1.102084
      dz2     :     0.016558  d :     0.102243
      dxz     :     0.020886
      dyz     :     0.023973
      dx2y2   :     0.020591
      dxy     :     0.020235
  2 H s       :     0.880498  s :     0.880498
      pz      :     0.015226  p :     0.046048
      px      :     0.007751
      py      :     0.023071
  3 H s       :     0.893816  s :     0.893816
      pz      :     0.011417  p :     0.056691
      px      :     0.024941
      py      :     0.020334
  4 O s       :     3.461007  s :     3.461007
      pz      :     1.658719  p :     4.625847
      px      :     1.416390
      py      :     1.550738
      dz2     :     0.012487  d :     0.073965
      dxz     :     0.020973
      dyz     :     0.011478
      dx2y2   :     0.012846
      dxy     :     0.016180
  5 C s       :     2.878115  s :     2.878115
      pz      :     0.996008  p :     3.026623
      px      :     1.014485
      py      :     1.016130
      dz2     :     0.027082  d :     0.152721
      dxz     :     0.026192
      dyz     :     0.042938
      dx2y2   :     0.024188
      dxy     :     0.032321
  6 H s       :     0.784299  s :     0.784299
      pz      :     0.013514  p :     0.084674
      px      :     0.044555
      py      :     0.026605
  7 S s       :     5.620130  s :     5.620130
      pz      :     3.166158  p :    10.253714
      px      :     3.457152
      py      :     3.630404
      dz2     :     0.020178  d :     0.109380
      dxz     :     0.034166
      dyz     :     0.017817
      dx2y2   :     0.012242
      dxy     :     0.024977
  8 N s       :     3.180769  s :     3.180769
      pz      :     1.170211  p :     3.995936
      px      :     1.384644
      py      :     1.441082
      dz2     :     0.018456  d :     0.083218
      dxz     :     0.011134
      dyz     :     0.027163
      dx2y2   :     0.014917
      dxy     :     0.011548
  9 H s       :     0.786997  s :     0.786997
      pz      :     0.035107  p :     0.084423
      px      :     0.018004
      py      :     0.031312
 10 C s       :     2.855525  s :     2.855525
      pz      :     0.905917  p :     2.695453
      px      :     0.866897
      py      :     0.922639
      dz2     :     0.067398  d :     0.321287
      dxz     :     0.094467
      dyz     :     0.059736
      dx2y2   :     0.054762
      dxy     :     0.044923
 11 H s       :     0.857315  s :     0.857315
      pz      :     0.013830  p :     0.046323
      px      :     0.013515
      py      :     0.018978
 12 O s       :     3.546772  s :     3.546772
      pz      :     1.446401  p :     4.589456
      px      :     1.629900
      py      :     1.513155
      dz2     :     0.021240  d :     0.081306
      dxz     :     0.014847
      dyz     :     0.024418
      dx2y2   :     0.010759
      dxy     :     0.010042
 13 H s       :     0.687690  s :     0.687690
      pz      :     0.029703  p :     0.120786
      px      :     0.037500
      py      :     0.053583


                      *****************************
                      * MAYER POPULATION ANALYSIS *
                      *****************************

  NA   - Mulliken gross atomic population
  ZA   - Total nuclear charge
  QA   - Mulliken gross atomic charge
  VA   - Mayer's total valence
  BVA  - Mayer's bonded valence
  FA   - Mayer's free valence

  ATOM       NA         ZA         QA         VA         BVA        FA
  0 H      0.8271     1.0000     0.1729     0.9493     0.9024     0.0469
  1 C      6.3575     6.0000    -0.3575     3.9328     3.6462     0.2866
  2 H      0.8588     1.0000     0.1412     0.9452     0.8972     0.0480
  3 H      0.9062     1.0000     0.0938     0.9874     0.9343     0.0530
  4 O      8.5213     8.0000    -0.5213     2.2297     1.8811     0.3486
  5 C      6.0666     6.0000    -0.0666     3.8894     3.6140     0.2754
  6 H      0.7342     1.0000     0.2658     0.9185     0.8735     0.0450
  7 S     16.0406    16.0000    -0.0406     2.1879     1.8287     0.3591
  8 N      7.6127     7.0000    -0.6127     3.0192     2.6990     0.3203
  9 H      0.7406     1.0000     0.2594     0.9223     0.8770     0.0453
 10 C      5.4249     6.0000     0.5751     3.9470     3.6761     0.2709
 11 H      0.8252     1.0000     0.1748     0.9496     0.9033     0.0462
 12 O      8.4321     8.0000    -0.4321     2.3007     1.9165     0.3842
 13 H      0.6524     1.0000     0.3476     0.8972     0.8543     0.0429

  Mayer bond orders larger than 0.100000
B(  0-H ,  5-C ) :   0.9065 B(  1-C ,  2-H ) :   0.9142 B(  1-C ,  5-C ) :   0.9031 
B(  1-C ,  7-S ) :   0.9321 B(  1-C , 11-H ) :   0.9131 B(  3-H ,  7-S ) :   0.8933 
B(  4-O , 10-C ) :   1.0208 B(  4-O , 13-H ) :   0.8089 B(  5-C ,  8-N ) :   0.9532 
B(  5-C , 10-C ) :   0.8656 B(  6-H ,  8-N ) :   0.8708 B(  8-N ,  9-H ) :   0.8703 
B( 10-C , 12-O ) :   1.7836 


----------------------------------
MP2 DERIVATIVE INTEGRAL GENERATION
----------------------------------

Input SCF Electron Density              ... 4.scfp
Input Correlated Electron Density       ... 4.pmp2re
Input Energy Weighted Density           ... 4.wmp2.tmp
Input Wavefunction Amplitudes           ... 4.mp2tsaa.tmp

Nuclear repulsion gradient              ... done (  0.0 sec)
HCore & Overlap gradient  (SHARK)       ... done (  0.1 sec)
Analytic two-electron gradient terms    ... 
  Batch handling in the gradient evaluation:
  General contraction                   ... not used
  Memory available                      ... 4087.7 MB
  Memory per occupied orbital in Q2     ...    3.0 MB
  Memory per occupied orbital in Q3     ...    0.0 MB
  Total memory requirement per |i>      ...    3.0 MB
  Number of orbitals treated per batch  ...     21
  Number of batches to be done          ...      1
done (  6.4 sec)

---------------------------------------
MP2 TOTAL ENERGY:     -720.441119048 Eh
---------------------------------------

The final MP2 gradient
  0:  -0.00003466   0.00398818   0.00196649
  1:   0.00083865   0.00257312  -0.01003925
  2:  -0.00156974  -0.00214692   0.00285349
  3:   0.00027327   0.00004141   0.00056696
  4:  -0.01701704  -0.00401966   0.02035017
  5:  -0.00049050  -0.00005967   0.00346280
  6:  -0.00042831   0.00234136   0.00107172
  7:   0.00490078  -0.00125214  -0.00016435
  8:   0.00327807  -0.00772235   0.00504124
  9:  -0.00240322  -0.00014222  -0.00169178
 10:   0.00395629  -0.01371469   0.00929040
 11:  -0.00209997   0.00043451   0.00076131
 12:   0.00550434   0.01892403  -0.02779879
 13:   0.00529205   0.00075505  -0.00567041

-----------------------------------
NORM OF THE MP2 GRADIENT:  0.050295
-----------------------------------

Maximum memory used throughout the entire MP2-calculation: 233.4 MB

-------------------------   --------------------
FINAL SINGLE POINT ENERGY      -720.441119047970
-------------------------   --------------------

------------------------------------------------------------------------------
                         ORCA GEOMETRY RELAXATION STEP
------------------------------------------------------------------------------

Reading the OPT-File                    .... done
Getting information on internals        .... done
Copying old internal coords+grads       .... done
Making the new internal coordinates     .... (2022 redundants) done
Validating the new internal coordinates .... (2022 redundants) done
Calculating the B-matrix                .... done
Calculating the G,G- and P matrices     .... done
Transforming gradient to internals      .... done
Projecting the internal gradient        .... done
Number of atoms                         ....  14
Number of internal coordinates          ....  55
Current Energy                          ....  -720.441119048 Eh
Current gradient norm                   ....     0.050295454 Eh/bohr
Maximum allowed component of the step   ....  0.300
Current trust radius                    ....  0.300
Evaluating the initial hessian          ....  (Almloef) done
Projecting the Hessian                  .... done
Forming the augmented Hessian           .... done
Diagonalizing the augmented Hessian     .... done
Last element of RFO vector              ....  0.988957413
Lowest eigenvalues of augmented Hessian:
 -0.003284151  0.010014811  0.010485210  0.010576741  0.016940224
Length of the computed step             ....  0.149854767
The final length of the internal step   ....  0.149854767
Converting the step to Cartesian space:
 Initial RMS(Int)=    0.0202064127
Transforming coordinates:
 Iter   0:  RMS(Cart)=    0.0230713498 RMS(Int)=    0.0202396411
done
Storing new coordinates                 .... done

                                .--------------------.
          ----------------------|Geometry convergence|-------------------------
          Item                value                   Tolerance       Converged
          ---------------------------------------------------------------------
[...]
      py      :     0.007171
  4 O s       :     3.826355  s :     3.826355
      pz      :     1.591833  p :     4.656579
      px      :     1.575247
      py      :     1.489499
      dz2     :     0.009776  d :     0.047545
      dxz     :     0.011919
      dyz     :     0.012784
      dx2y2   :     0.005903
      dxy     :     0.007162
  5 C s       :     3.187946  s :     3.187946
      pz      :     0.939560  p :     2.783702
      px      :     0.917897
      py      :     0.926244
      dz2     :     0.014181  d :     0.078439
      dxz     :     0.013949
      dyz     :     0.021846
      dx2y2   :     0.012048
      dxy     :     0.016415
  6 H s       :     0.710125  s :     0.710125
      pz      :     0.005259  p :     0.027031
      px      :     0.012252
      py      :     0.009520
  7 S s       :     5.831892  s :     5.831892
      pz      :     3.151347  p :    10.078525
      px      :     3.319823
      py      :     3.607356
      dz2     :     0.016544  d :     0.100739
      dxz     :     0.031212
      dyz     :     0.016028
      dx2y2   :     0.012617
      dxy     :     0.024337
  8 N s       :     3.589534  s :     3.589534
      pz      :     1.164672  p :     3.967596
      px      :     1.418442
      py      :     1.384482
      dz2     :     0.009666  d :     0.053987
      dxz     :     0.008409
      dyz     :     0.015348
      dx2y2   :     0.010579
      dxy     :     0.009985
  9 H s       :     0.706063  s :     0.706063
      pz      :     0.010378  p :     0.027059
      px      :     0.006933
      py      :     0.009748
 10 C s       :     2.996194  s :     2.996194
      pz      :     0.703196  p :     2.303197
      px      :     0.792655
      py      :     0.807347
      dz2     :     0.035025  d :     0.140986
      dxz     :     0.041365
      dyz     :     0.042089
      dx2y2   :     0.011515
      dxy     :     0.010993
 11 H s       :     0.808987  s :     0.808987
      pz      :     0.004405  p :     0.014838
      px      :     0.004411
      py      :     0.006022
 12 O s       :     3.861855  s :     3.861855
      pz      :     1.383161  p :     4.518657
      px      :     1.549976
      py      :     1.585519
      dz2     :     0.014245  d :     0.050802
      dxz     :     0.013238
      dyz     :     0.013021
      dx2y2   :     0.005272
      dxy     :     0.005025
 13 H s       :     0.612299  s :     0.612299
      pz      :     0.010554  p :     0.040743
      px      :     0.013384
      py      :     0.016804


                     *******************************
                     * LOEWDIN POPULATION ANALYSIS *
                     *******************************

----------------------
LOEWDIN ATOMIC CHARGES
----------------------
   0 H :    0.092679
   1 C :   -0.220874
   2 H :    0.074739
   3 H :    0.040047
   4 O :   -0.182320
   5 C :   -0.052550
   6 H :    0.131502
   7 S :    0.037171
   8 N :   -0.259582
   9 H :    0.130713
  10 C :    0.140784
  11 H :    0.098007
  12 O :   -0.220714
  13 H :    0.190398

-------------------------------
LOEWDIN REDUCED ORBITAL CHARGES
-------------------------------
  0 H s       :     0.862495  s :     0.862495
      pz      :     0.019346  p :     0.044826
      px      :     0.008501
      py      :     0.016979
  1 C s       :     2.941910  s :     2.941910
      pz      :     1.049743  p :     3.175717
      px      :     1.024811
      py      :     1.101162
      dz2     :     0.016367  d :     0.103246
      dxz     :     0.021247
      dyz     :     0.025284
      dx2y2   :     0.017408
      dxy     :     0.022941
  2 H s       :     0.879030  s :     0.879030
      pz      :     0.017385  p :     0.046231
      px      :     0.008069
      py      :     0.020777
  3 H s       :     0.906592  s :     0.906592
      pz      :     0.012149  p :     0.053361
      px      :     0.022825
      py      :     0.018387
  4 O s       :     3.482088  s :     3.482088
      pz      :     1.600648  p :     4.628250
      px      :     1.552438
      py      :     1.475164
      dz2     :     0.013966  d :     0.071982
      dxz     :     0.017937
      dyz     :     0.019093
      dx2y2   :     0.007536
      dxy     :     0.013451
  5 C s       :     2.878121  s :     2.878121
      pz      :     0.994513  p :     3.022696
      px      :     1.011788
      py      :     1.016394
      dz2     :     0.026172  d :     0.151734
      dxz     :     0.026405
      dyz     :     0.043142
      dx2y2   :     0.022056
      dxy     :     0.033959
  6 H s       :     0.784464  s :     0.784464
      pz      :     0.014682  p :     0.084034
      px      :     0.041933
      py      :     0.027419
  7 S s       :     5.619586  s :     5.619586
      pz      :     3.211479  p :    10.232705
      px      :     3.403026
      py      :     3.618200
      dz2     :     0.018267  d :     0.110537
      dxz     :     0.035130
      dyz     :     0.018512
      dx2y2   :     0.012960
      dxy     :     0.025668
  8 N s       :     3.195825  s :     3.195825
      pz      :     1.195235  p :     3.980981
      px      :     1.408813
      py      :     1.376933
      dz2     :     0.017153  d :     0.082776
      dxz     :     0.012402
      dyz     :     0.026046
      dx2y2   :     0.012614
      dxy     :     0.014560
  9 H s       :     0.784696  s :     0.784696
      pz      :     0.032909  p :     0.084590
      px      :     0.019820
      py      :     0.031861
 10 C s       :     2.865269  s :     2.865269
      pz      :     0.958374  p :     2.690041
      px      :     0.845206
      py      :     0.886461
      dz2     :     0.083364  d :     0.303906
      dxz     :     0.088510
      dyz     :     0.091266
      dx2y2   :     0.020242
      dxy     :     0.020523
 11 H s       :     0.855438  s :     0.855438
      pz      :     0.013318  p :     0.046555
      px      :     0.014109
      py      :     0.019128
 12 O s       :     3.562519  s :     3.562519
      pz      :     1.468918  p :     4.579092
      px      :     1.532722
      py      :     1.577451
      dz2     :     0.029002  d :     0.079103
      dxz     :     0.018173
      dyz     :     0.020676
      dx2y2   :     0.005664
      dxy     :     0.005588
 13 H s       :     0.689020  s :     0.689020
      pz      :     0.032138  p :     0.120582
      px      :     0.038872
      py      :     0.049572


                      *****************************
                      * MAYER POPULATION ANALYSIS *
                      *****************************

  NA   - Mulliken gross atomic population
  ZA   - Total nuclear charge
  QA   - Mulliken gross atomic charge
  VA   - Mayer's total valence
  BVA  - Mayer's bonded valence
  FA   - Mayer's free valence

  ATOM       NA         ZA         QA         VA         BVA        FA
  0 H      0.8308     1.0000     0.1692     0.9507     0.9045     0.0462
  1 C      6.3650     6.0000    -0.3650     3.9241     3.6370     0.2871
  2 H      0.8549     1.0000     0.1451     0.9465     0.8986     0.0480
  3 H      0.9276     1.0000     0.0724     0.9855     0.9313     0.0543
  4 O      8.5305     8.0000    -0.5305     2.2105     1.8568     0.3537
  5 C      6.0501     6.0000    -0.0501     3.8847     3.6097     0.2750
  6 H      0.7372     1.0000     0.2628     0.9154     0.8698     0.0456
  7 S     16.0112    16.0000    -0.0112     2.2010     1.8444     0.3566
  8 N      7.6111     7.0000    -0.6111     3.0214     2.6990     0.3224
  9 H      0.7331     1.0000     0.2669     0.9206     0.8754     0.0452
 10 C      5.4404     6.0000     0.5596     3.9317     3.6512     0.2804
 11 H      0.8238     1.0000     0.1762     0.9493     0.9029     0.0463
 12 O      8.4313     8.0000    -0.4313     2.3036     1.9126     0.3910
 13 H      0.6530     1.0000     0.3470     0.8994     0.8559     0.0435

  Mayer bond orders larger than 0.100000
B(  0-H ,  5-C ) :   0.9128 B(  1-C ,  2-H ) :   0.9093 B(  1-C ,  5-C ) :   0.8961 
B(  1-C ,  7-S ) :   0.9398 B(  1-C , 11-H ) :   0.9099 B(  3-H ,  7-S ) :   0.9016 
B(  4-O , 10-C ) :   0.9927 B(  4-O , 13-H ) :   0.8104 B(  5-C ,  8-N ) :   0.9542 
B(  5-C , 10-C ) :   0.8686 B(  6-H ,  8-N ) :   0.8724 B(  8-N ,  9-H ) :   0.8636 
B( 10-C , 12-O ) :   1.7827 


----------------------------------
MP2 DERIVATIVE INTEGRAL GENERATION
----------------------------------

Input SCF Electron Density              ... 4.scfp
Input Correlated Electron Density       ... 4.pmp2re
Input Energy Weighted Density           ... 4.wmp2.tmp
Input Wavefunction Amplitudes           ... 4.mp2tsaa.tmp

Nuclear repulsion gradient              ... done (  0.0 sec)
HCore & Overlap gradient  (SHARK)       ... done (  0.1 sec)
Analytic two-electron gradient terms    ... 
  Batch handling in the gradient evaluation:
  General contraction                   ... not used
  Memory available                      ... 4086.9 MB
  Memory per occupied orbital in Q2     ...    3.0 MB
  Memory per occupied orbital in Q3     ...    0.0 MB
  Total memory requirement per |i>      ...    3.0 MB
  Number of orbitals treated per batch  ...     21
  Number of batches to be done          ...      1
done (  6.6 sec)

---------------------------------------
MP2 TOTAL ENERGY:     -720.444120020 Eh
---------------------------------------

The final MP2 gradient
  0:   0.00000038   0.00001321  -0.00001188
  1:   0.00001867   0.00001326  -0.00001539
  2:   0.00000249   0.00000013   0.00000058
  3:   0.00000691   0.00000181  -0.00000174
  4:   0.00000933  -0.00000040  -0.00001497
  5:  -0.00000498  -0.00003819   0.00002864
  6:  -0.00000307   0.00000282   0.00000538
  7:  -0.00001731  -0.00000382   0.00000991
  8:   0.00000576   0.00000677  -0.00001699
  9:  -0.00000008  -0.00000112   0.00000123
 10:  -0.00000796   0.00000912   0.00000115
 11:  -0.00000487   0.00000001   0.00000767
 12:  -0.00000220  -0.00000198   0.00000260
 13:  -0.00000309  -0.00000162   0.00000382

-----------------------------------
NORM OF THE MP2 GRADIENT:  0.000070
-----------------------------------

Maximum memory used throughout the entire MP2-calculation: 234.2 MB

-------------------------   --------------------
FINAL SINGLE POINT ENERGY      -720.444120019741
-------------------------   --------------------

                                *** OPTIMIZATION RUN DONE ***


------------------------------------------------------------------------------
                              ORCA PROPERTY CALCULATIONS
------------------------------------------------------------------------------

GBWName                                 ... 4.gbw
Number of atoms                         ...     14
Number of basis functions               ...    137
Max core memory                         ...   4096 MB

Electric properties:
Dipole moment                           ... YES
Quadrupole moment                       ...  NO
Static polarizability (Dipole/Dipole)   ...  NO
Static polarizability (Dipole/Quad.)    ...  NO
Static polarizability (Quad./Quad.)     ...  NO
Static polarizability (Velocity)        ...  NO
Static hyperpolarizability              ...  NO

Atomic electric properties:
Dipole moment                           ...  NO
Quadrupole moment                       ...  NO
Static polarizability                   ...  NO

Choice of electric origin               ... Center of mass
Position of electric origin             ...    -3.806751     2.573838     1.346283

General magnetic properties:
Magnetizability                         ...  NO

EPR properties:
g-Tensor (aka g-matrix)                 ...  NO
Zero-Field splitting spin-orbit         ...  NO
Zero-field splitting spin-spin          ...  NO
Hyperfine couplings                     ...  NO (   0 nuclei)
Quadrupole couplings                    ...  NO (   0 nuclei)
Contact density                         ...  NO (   0 nuclei)

NMR properties:
Chemical shifts                         ...  NO (   0 nuclei)
Spin-rotation constants                 ...  NO (   0 nuclei)
Spin-spin couplings                     ...  NO (   0 nuclei,    0 pairs)

Choice of magnetic origin               ... GIAO
Position of magnetic origin             ...     0.000000     0.000000     0.000000

Properties with geometric perturbations:
SCF Hessian                             ...  NO
IR spectrum                             ...  NO
VCD spectrum                            ...  NO
X-ray spectroscopy properties:
SCF XES/XAS/RIXS spectra                ...  NO

SCF SOC stabilization energy            ...  NO
Diagonal Born-Oppenheimer correction    ...  NO

-------------
DIPOLE MOMENT
-------------

Method             : SCF
Type of density    : Electron Density
Multiplicity       :   1
Irrep              :   0
Energy             :  -719.3839924204917224 Eh
Basis              : AO
                                X                 Y                 Z
Electronic contribution:     -0.310778386      -2.209366901       3.438065739
Nuclear contribution   :      1.299804059       1.995967631      -4.291685632
                        -----------------------------------------
Total Dipole Moment    :      0.989025673      -0.213399270      -0.853619894
                        -----------------------------------------
Magnitude (a.u.)       :      1.323774132
Magnitude (Debye)      :      3.364766442



--------------------
Rotational spectrum 
--------------------
 
Rotational constants in cm-1:             0.100247             0.051757             0.039135 
Rotational constants in MHz :          3005.343156          1551.647600          1173.231217 

Dipole components along the rotational axes: 
x,y,z [a.u.] :     1.202255     0.196634    -0.517973 
x,y,z [Debye]:     3.055889     0.499804    -1.316582 

 

-------------
DIPOLE MOMENT
-------------

Method             : MP2
Type of density    : Electron Density
Multiplicity       :   1
Level              : Unrelaxed density
Irrep              :   0
Energy             :     0.0000000000000000 Eh
Basis              : AO
                                X                 Y                 Z
Electronic contribution:     -0.308627693      -2.222137426       3.467538182
Nuclear contribution   :      1.299804059       1.995967631      -4.291685632
                        -----------------------------------------
Total Dipole Moment    :      0.991176365      -0.226169795      -0.824147450
                        -----------------------------------------
Magnitude (a.u.)       :      1.308740762
Magnitude (Debye)      :      3.326554652



--------------------
Rotational spectrum 
--------------------
 
Rotational constants in cm-1:             0.100247             0.051757             0.039135 
Rotational constants in MHz :          3005.343156          1551.647600          1173.231217 

Dipole components along the rotational axes: 
x,y,z [a.u.] :     1.193957     0.166741    -0.509379 
x,y,z [Debye]:     3.034797     0.423821    -1.294739 

 

-------------
DIPOLE MOMENT
-------------

Method             : MP2
Type of density    : Electron Density
Multiplicity       :   1
Level              : Relaxed density
Irrep              :   0
Energy             :     0.0000000000000000 Eh
Basis              : AO
                                X                 Y                 Z
Electronic contribution:     -0.284082125      -2.283902147       3.580233978
Nuclear contribution   :      1.299804059       1.995967631      -4.291685632
                        -----------------------------------------
Total Dipole Moment    :      1.015721934      -0.287934515      -0.711451655
                        -----------------------------------------
Magnitude (a.u.)       :      1.273091037
Magnitude (Debye)      :      3.235940252



--------------------
Rotational spectrum 
--------------------
 
Rotational constants in cm-1:             0.100247             0.051757             0.039135 
Rotational constants in MHz :          3005.343156          1551.647600          1173.231217 

Dipole components along the rotational axes: 
x,y,z [a.u.] :     1.176963     0.039584    -0.483686 
x,y,z [Debye]:     2.991602     0.100615    -1.229433 

 

Dipole moment calculation done in   0.0 sec 

Maximum memory used throughout the entire PROP-calculation: 7.2 MB

--------------------------------
SUGGESTED CITATIONS FOR THIS RUN
--------------------------------

Below you find a list of papers that are relevant to this ORCA run
We neither can nor want to force you to cite these papers, but we appreciate if you do
You receive ORCA, which is the product of decades of hard work by many enthusiastic individuals, for free
The only thing we kindly ask in return is that you cite our papers,
We deeply appreciate it, if you show your appreciation for ORCA by not just citing the generic ORCA reference.

Please note that relegating all ORCA citations to the supporting information does *not* help us.
SI sections are not indexed - citations you put there will not count into any citation statistics
But we need these citations in order to attract the funding resources that allow us to do what we are doing

Therefore, if you are a happy ORCA user, please consider citing a few of the papers listed below in the main body of your paper

In addition to the list printed below, the program has created the file 4.bibtex that contains the list in bibtex format
You can import this file easily into all common literature databanks and citation aid programs


List of essential papers. We consider these as the minimum necessary citations

  1. Neese, F.
     Software update: the ORCA program system, version 6.0
     WIRES Comput. Molec. Sci. 2025 15(1), e70019
     doi.org/10.1002/wcms.7019

List of papers to cite with high priority. The work reported in these papers was absolutely
necessary for this run to complete.
Our perspective: the developers of density functionals and basis sets usually get cited in chemistry papers
Good! But without the algorithms to do something with them, the functionals or basis sets would not do anything.
Hence, in our opinion, the algorithm design and method developments papers are equally worthy of getting cited

  1. Neese, F.
     The SHARK Integral Generation and Digestion System
     J. Comp. Chem. 2022 44(3), 381
     doi.org/10.1002/jcc.26942

List of suggested additional citations. These are papers that are important in the 'surrounding' of 
of this run, or papers that preceded the highly important papers. If you like your results we are grateful for a citation.

  1. Neese, F.
     The ORCA program system
     WIRES Comput. Molec. Sci. 2012 2(1), 73-78
     doi.org/10.1002/wcms.81
  2. Neese, F.
     Software update: the ORCA program system, version 4.0
     WIRES Comput. Molec. Sci. 2018 8(1), 1-6
     doi.org/10.1002/wcms.1327
  3. Neese, F.; Wennmohs, F.; Becker, U.; Riplinger, C.
     The ORCA quantum chemistry program package
     J. Chem. Phys. 2020 152(22), 224108
     doi.org/10.1063/5.0004608
  4. Neese, F.
     Software update: The ORCA program system—Version 5.0
     WIRES Comput. Molec. Sci. 2022 12(1), e1606
     doi.org/10.1002/wcms.1606

List of optional additional citations

  1. Neese, F.
     Approximate second-order SCF convergence for spin unrestricted wavefunctions
     Chem. Phys. Lett. 2000 325(1-3), 93-98
     doi.org/10.1016/s0009-2614(00)00662-x

Timings for individual modules:

Sum of individual times          ...      569.447 sec (=   9.491 min)
Startup calculation              ...        5.926 sec (=   0.099 min)   1.0 %
SCF iterations                   ...      141.713 sec (=   2.362 min)  24.9 %
Property calculations            ...        0.037 sec (=   0.001 min)   0.0 %
MP2 module                       ...      421.745 sec (=   7.029 min)  74.1 %
Geometry relaxation              ...        0.026 sec (=   0.000 min)   0.0 %
                             ****ORCA TERMINATED NORMALLY****
TOTAL RUN TIME: 0 days 0 hours 9 minutes 29 seconds 813 msec
