
                                 *****************
                                 * O   R   C   A *
                                 *****************

                                            #,                                       
                                            ###                                      
                                            ####                                     
                                            #####                                    
                                            ######                                   
                                           ########,                                 
                                     ,,################,,,,,                         
                               ,,#################################,,                 
                          ,,##########################################,,             
                       ,#########################################, ''#####,          
                    ,#############################################,,   '####,        
                  ,##################################################,,,,####,       
                ,###########''''           ''''###############################       
              ,#####''   ,,,,##########,,,,          '''####'''          '####       
            ,##' ,,,,###########################,,,                        '##       
           ' ,,###''''                  '''############,,,                           
         ,,##''                                '''############,,,,        ,,,,,,###''
      ,#''                                            '''#######################'''  
     '                                                          ''''####''''         
             ,#######,   #######,   ,#######,      ##                                
            ,#'     '#,  ##    ##  ,#'     '#,    #''#        ,####,    ,#,          
            ##       ##  ##   ,#'  ##            #'  '#       #'       ,# #          
            ##       ##  #######   ##           ,######,      #####,      #          
            '#,     ,#'  ##    ##  '#,     ,#' ,#      #,     #,   #      #          
             '#######'   ##     ##  '#######'  #'      '#     '####' #    #          



                #########################################################
                #                        -***-                          #
                #          Department of theory and spectroscopy        #
                #                                                       #
                #                      Frank Neese                      #
                #                                                       #
                #     Directorship, Architecture, Infrastructure        #
                #                    SHARK, DRIVERS                     #
                #        Core code/Algorithms in most modules           #
                #                                                       #
                #        Max Planck Institute fuer Kohlenforschung      #
                #                Kaiser Wilhelm Platz 1                 #
                #                 D-45470 Muelheim/Ruhr                 #
                #                      Germany                          #
                #                                                       #
                #                  All rights reserved                  #
                #                        -***-                          #
                #########################################################


                         Program Version 6.1.0  -  RELEASE   -
                                (GIT: $679e74b$)
                          ($2025-06-10 18:02:51 +0200$)


 With contributions from (in alphabetic order):
[Max-Planck-Institut fuer Kohlenforschung]                               
  Daniel Aravena         : Magnetic Suceptibility                        
  Michael Atanasov       : Ab Initio Ligand Field Theory (pilot matlab implementation)
  Alexander A. Auer      : GIAO ZORA, VPT2 properties, NMR spectrum      
  Ute Becker             : All parallelization in ORCA, NUMFREQ, NUMCALC 
  Giovanni Bistoni       : ED, misc. LED, open-shell LED, HFLD           
  Dmytro Bykov           : pre 5.0 version of the SCF Hessian            
  Marcos Casanova-Páez   : Triplet and SCS-CIS(D). UHF-(DLPNO)-IP/EA/STEOM-CCSD. UHF-CVS-IP/STEOM-CCSD   
  Vijay G. Chilkuri      : MRCI spin determinant printing, contributions to CSF-ICE 
  Pauline Colinet        : FMM embedding                                 
  Dipayan Datta          : RHF DLPNO-CCSD density                        
  Achintya Kumar Dutta   : EOM-CC, STEOM-CC                              
  Nicolas Foglia         : Exact transition moments, OPA infrastructure, MCD improvements    
  Dmitry Ganyushin       : Spin-Orbit,Spin-Spin,Magnetic field MRCI      
  Miquel Garcia-Rates    : C-PCM and meta-GGA Hessian, CCSD/C-PCM, Gaussian charge scheme 
  Tiago L. C. Gouveia    : GS-ROHF, GS-ROCIS                             
  Yang Guo               : DLPNO-NEVPT2, F12-NEVPT2, CIM, IAO-localization        
  Andreas Hansen         : Spin unrestricted coupled pair/coupled cluster methods 
  Ingolf Harden          : AUTO-CI MPn and infrastructure                
  Benjamin Helmich-Paris : MC-RPA, TRAH-(SCF,CASSCF), AVAS, COSX integrals, SCF dyn. polar., MC-PDFT, srDFT 
  Lee Huntington         : MR-EOM, pCC                                   
  Robert Izsak           : Overlap fitted RIJCOSX, COSX-SCS-MP3, EOM     
  Riya Kayal             : Wick's Theorem for AUTO-CI, AUTO-CI UHF-CCSDT 
  Emily Kempfer          : AUTO-CI RHF CISDT and CCSDT, approximate NEVPT4
  Christian Kollmar      : KDIIS, OOCD, Brueckner-CCSD(T), CCSD density, CASPT2, CASPT2-K, improved NEVPT2 
  Axel Koslowski         : Symmetry handling                             
  Simone Kossmann        : meta-GGA functionals, TD-DFT gradient, OOMP2, (MP2 Hessian; deprecated post 5.0) 
  Lucas Lang             : DCDCAS, Hyperfine gauge corrections, ICE-SOC+SSC
  Marvin Lechner         : AUTO-CI (C++ implementation), FIC-MRCC        
  Spencer Leger          : CASSCF response                               
  Dagmar Lenk            : GEPOL surface, SMD, ORCA-2-JSON               
  Dimitrios Liakos       : Extrapolation schemes; Compound Job, Property file
  Dimitrios Manganas     : Further ROCIS development; embedding schemes. LFT, Crystal Embedding 
  Dimitrios Pantazis     : SARC Basis sets                               
  Anastasios Papadopoulos: AUTO-CI, single reference methods and gradients 
  Taras Petrenko         : pre 6.0 DFT Hessian and TD-DFT gradient,  ECA, NRVS 
  Petra Pikulova         : Analytic Raman intensities                    
  Peter Pinski           : DLPNO-MP2, DLPNO-MP2 Gradient                 
  Shashank Vittal Rao    : ES-AILFT, MagRelax                            
  Christoph Reimann      : Effective Core Potentials                     
  Marius Retegan         : Local ZFS, SOC                                
  Christoph Riplinger    : Optimizer, TS searches, QM/MM, DLPNO-CCSD(T), (RO)-DLPNO pert. Triples 
  Michael Roemelt        : Original ROCIS implementation, recursive CI coupling coefficients
  Masaaki Saitow         : Open-shell DLPNO-CCSD energy and density      
  Barbara Sandhoefer     : DKH picture change effects                    
  Yorick L. A. Schmerwitz: GMF and freeze-and-release deltaSCF, NEB S-IDPP initial path                    
  Kantharuban Sivalingam : CASSCF convergence/infrastructure, NEVPT2, NEVPT3, NEVPT4(SD), FIC-MRCI and CEPA variants
  Bernardo de Souza      : ESD, SOC TD-DFT                               
  Georgi L. Stoychev     : AutoAux, RI-MP2 NMR, DLPNO-MP2 response, X2C  
  Van Anh Tran           : RI-MP2 g-tensors                              
  Willem Van den Heuvel  : Paramagnetic NMR                              
  Zikuan Wang            : NOTCH, Electric field optimization            
  Frank Wennmohs         : Technical directorship and infrastructure     
  Hang Xu                : AUTO-CI-Response properties                   
                                                                         
[FACCTs GmbH]                                                            
  Markus Bursch, Nicolas Foglia, Miquel Garcia-Rates, Ingolf Harden, Hagen Neugebauer, Anastasios Papadopoulos, 
  Christoph Riplinger, Bernardo de Souza, Georgi L. Stoychev                                                    
                                                                 
  APM, various basis sets, CI-OPT, improved COSX, DLPNO-Multilevel,           
  DOCKER, DRACO, updates on ESD, Fragmentator, GOAT, IRC, LR-CPCM, L-BFGS, MBIS, meta-GGA TD-DFT gradient, ML-optimized integration grids, 
  MM, NACMEs, nearIR, NEB, NEB-TS, NL-DFT gradient (VV10), 2- and 3-layer-ONIOM, interface openCOSMO-RS, QMMM,   
  Crystal-QMMM, RESP, rigid body optimization, SF, symmetry and pop. for TD-DFT, various functionals, SOLVATOR                                   
                                                                         
[Other institutions]                                                     
  V. Asgeirsson          : NEB                                           
  Christoph Bannwarth    : sTDA-DFT, sTD-DFT, PBEh-3c, B97-3c, D3        
  Giovanni Bistoni       : ETS/NOCV, ADLD/ADEX, COVALED                  
  Martin Brehm           : Molecular dynamics                            
  Ronald Cardenas        : ETS/NOCV                                      
  Martina Colucci        : COVALED                                       
  Sebastian Ehlert       : rSCAN, r2SCAN, r2SCAN-3c, D4, dhf basis sets  
  Marvin Friede          : D4 for Fr, Ra, Ac-Lr                          
  Lars Goerigk           : TD-DFT with DH, B97 family of functionals     
  Stefan Grimme          : VdW corrections, initial TS optimization, DFT functionals, gCP, sTDA/sTD-DF 
  Waldemar Hujo          : DFT-NL                                        
  H. Jonsson             : NEB                                           
  Holger Kruse           : gCP                                           
  Marcel Mueller         : wB97X-3c, vDZP basis set                      
  Hagen Neugebauer       : wr2SCAN, Native XTB                           
  Gianluca Regni         : ADLD/ADEX                                     
  Tobias Risthaus        : pre 6.0 range-separated hybrid DFT and stability analysis
  Lukas Wittmann         : regularized MP2, r2SCAN double-hybrids, wr2SCAN        
                                                                         
We gratefully acknowledge several colleagues who have allowed us to      
interface, adapt or use parts of their codes:                            
  Ed Valeev, F. Pavosevic, A. Kumar             : LibInt (2-el integral package), F12 methods 
  Garnet Chan, S. Sharma, J. Yang, R. Olivares  : DMRG                   
  Ulf Ekstrom                                   : XCFun DFT Library      
  Mihaly Kallay                                 : mrcc  (arbitrary order and MRCC methods)
  Frank Weinhold                                : gennbo (NPA and NBO analysis)           
  Simon Mueller                                 : openCOSMO-RS                            
  Christopher J. Cramer and Donald G. Truhlar   : smd solvation model                     
  S Lehtola, MJT Oliveira, MAL Marques          : LibXC Library                           
  Liviu Ungur et al                             : ANISO software                          


 Your calculation uses the libint2 library for the computation of 2-el integrals
 For citations please refer to: http://libint.valeyev.net

 Your ORCA version has been built with support for libXC version: 7.0.0
 For citations please refer to: https://libxc.gitlab.io

 This ORCA versions uses:
   CBLAS   interface :  Fast vector & matrix operations
   LAPACKE interface :  Fast linear algebra routines
   SCALAPACK package :  Parallel linear algebra routines
   Shared memory     :  Shared parallel matrices
   BLAS/LAPACK       :  OpenBLAS 0.3.29  USE64BITINT DYNAMIC_ARCH NO_AFFINITY Haswell SINGLE_THREADED
        Core in use  :  Haswell
   Copyright (c) 2011-2014, The OpenBLAS Project


  ***********************************
  * Starting time: Wed Sep  3 16:09:34 2025
  * Host name:     chemlab03
  * Process ID:    122433
  * Working dir.:  /home/vivek/mm-project/vivek/xtb-goat/MP2-opt/l/3
  ***********************************



***************************************
The coordinates will be read from file: /home/vivek/mm-project/vivek/xtb-goat/xtb-goat/l/L_CONF/3.xyz
***************************************


================================================================================

----- Orbital basis set information -----
Your calculation utilizes the basis: 6-31G**
   H-He, Li-Ne : W. J. Hehre, R. Ditchfield and J.A. Pople, J. Chem. Phys. 56, 2257 (1972).
                 Note: He and Ne are unpublished basis sets taken from the Gaussian program.
                 Note: Li and B from J. D. Dill and J. A. Pople, J. Chem. Phys. 62, 2921 (1975).
   Na - Ar     : M. M. Francl, W. J. Pietro, W. J. Hehre, J. S. Binkley, M. S. Gordon, 
                 D. J. DeFrees and J. A. Pople, J. Chem. Phys. 77, 3654 (1982).
   K - Zn      : V. A. Rassolov, J. A. Pople, M. A. Ratner, and T. L. Windus, J. Chem. Phys. 109, 1223 (1998).

================================================================================
                                        WARNINGS
                       Please study these warnings very carefully!
================================================================================


WARNING: The frozen-core approximation for MP2-gradient calculations is turned on by default.

WARNING: Geometry Optimization
  ===> : Switching off AutoStart
         For restart on a previous wavefunction, please use MOREAD

WARNING: Post HF methods need fully converged wavefunctions
  ===> : Setting SCFConvForced true
         You can overwrite this default with %scf ConvForced false 


================================================================================
                                       INPUT FILE
================================================================================
NAME = 3.inp
|  1> ! MP2 6-31G** opt
|  2> 
|  3> * xyzfile 0 1 /home/vivek/mm-project/vivek/xtb-goat/xtb-goat/l/L_CONF/3.xyz
|  4> 
|  5>                          ****END OF INPUT****
================================================================================

                       *****************************
                       * Geometry Optimization Run *
                       *****************************

Geometry optimization settings:
Update method            Update   .... BFGS
Choice of coordinates    CoordSys .... (2022) Redundant Internals
Initial Hessian          InHess   .... Almloef's Model
Max. no of cycles        MaxIter  .... 66

Convergence Tolerances:
Energy Change            TolE     ....  5.0000e-06 Eh
Max. Gradient            TolMAXG  ....  3.0000e-04 Eh/bohr
RMS Gradient             TolRMSG  ....  1.0000e-04 Eh/bohr
Max. Displacement        TolMAXD  ....  4.0000e-03 bohr
RMS Displacement         TolRMSD  ....  2.0000e-03 bohr
Strict Convergence                .... False

------------------------------------------------------------------------------
                        ORCA OPTIMIZATION COORDINATE SETUP
------------------------------------------------------------------------------

The optimization will be done in redundant internal coordinates (2022)
Making redundant internal coordinates   ...  (2022 redundants) done
Evaluating the initial hessian          ...  (Almloef) done
Evaluating the coordinates              ...  done
Calculating the B-matrix                .... done
Calculating the G-matrix                .... done
The number of degrees of freedom        ....   94

    -----------------------------------------------------------------
                    Redundant Internal Coordinates


    -----------------------------------------------------------------
         Definition                    Initial Value    Approx d2E/dq
    -----------------------------------------------------------------
      1. B(C   1,C   0)                  1.5218         0.384945   
      2. B(C   4,C   0)                  1.5401         0.359912   
      3. B(H   5,C   0)                  1.0933         0.355801   
      4. B(N   7,H   3)                  1.0160         0.423248   
      5. B(N   7,C   0)                  1.4516         0.446257   
      6. B(N   7,H   2)                  1.0149         0.425034   
      7. B(C   8,C   4)                  1.5317         0.371184   
      8. B(H   9,C   4)                  1.0913         0.358420   
      9. B(H  10,C   4)                  1.0931         0.356018   
     10. B(C  11,C   8)                  1.5268         0.377980   
     11. B(H  12,C  11)                  1.0878         0.362987   
     12. B(C  13,C   8)                  1.5281         0.376144   
     13. B(C  13,H   6)                  1.0879         0.362936   
     14. B(H  14,C  11)                  1.0875         0.363385   
     15. B(H  15,C  11)                  1.0864         0.364838   
     16. B(H  16,C   8)                  1.0946         0.354032   
     17. B(H  17,C  13)                  1.0877         0.363154   
     18. B(H  18,C  13)                  1.0874         0.363509   
     19. B(O  19,C   1)                  1.3379         0.677605   
     20. B(H  20,O  19)                  0.9713         0.498857   
     21. B(O  21,C   1)                  1.2036         1.109775   
     22. A(C   4,C   0,N   7)          108.6314         0.369887   
     23. A(C   1,C   0,H   5)          108.7529         0.325278   
     24. A(H   5,C   0,N   7)          108.6370         0.331305   
     25. A(C   4,C   0,H   5)          110.0287         0.321709   
     26. A(C   1,C   0,N   7)          111.9261         0.374194   
     27. A(C   1,C   0,C   4)          108.8555         0.362900   
     28. A(C   0,C   1,O  21)          124.3277         0.439503   
     29. A(C   0,C   1,O  19)          113.0852         0.402471   
     30. A(O  19,C   1,O  21)          122.5869         0.484081   
     31. A(H   9,C   4,H  10)          107.7192         0.290106   
     32. A(C   0,C   4,H  10)          107.9860         0.321741   
     33. A(C   8,C   4,H   9)          109.6439         0.323729   
     34. A(C   0,C   4,H   9)          106.7667         0.322096   
     35. A(C   0,C   4,C   8)          114.8437         0.360652   
     36. A(C   8,C   4,H  10)          109.6227         0.323372   
     37. A(C   0,N   7,H   2)          110.4953         0.338315   
     38. A(H   2,N   7,H   3)          107.0057         0.301326   
     39. A(C   0,N   7,H   3)          109.1724         0.338078   
     40. A(C  13,C   8,H  16)          108.5247         0.323779   
     41. A(C   4,C   8,H  16)          109.0301         0.323075   
     42. A(C  11,C   8,H  16)          108.4784         0.324038   
     43. A(C  11,C   8,C  13)          109.8388         0.364508   
     44. A(C   4,C   8,C  13)          109.4787         0.363378   
     45. A(C   4,C   8,C  11)          111.4324         0.363681   
     46. A(H  14,C  11,H  15)          108.0044         0.291854   
     47. A(H  12,C  11,H  15)          108.5029         0.291804   
     48. A(C   8,C  11,H  15)          111.2732         0.325643   
     49. A(H  12,C  11,H  14)          108.4184         0.291621   
     50. A(C   8,C  11,H  14)          110.2095         0.325430   
     51. A(C   8,C  11,H  12)          110.3464         0.325371   
     52. A(H   6,C  13,H  18)          108.3827         0.291630   
     53. A(C   8,C  13,H  17)          110.8769         0.325135   
     54. A(H   6,C  13,H  17)          108.4031         0.291585   
     55. A(H   6,C  13,C   8)          110.3088         0.325103   
     56. A(H  17,C  13,H  18)          108.2952         0.291657   
     57. A(C   8,C  13,H  18)          110.4955         0.325187   
     58. A(C   1,O  19,H  20)          110.5547         0.373150   
     59. D(O  19,C   1,C   0,H   5)     32.7212         0.011040   
     60. D(O  21,C   1,C   0,H   5)   -147.1217         0.011040   
     61. D(O  21,C   1,C   0,C   4)     93.0008         0.011040   
     62. D(O  19,C   1,C   0,N   7)    152.7520         0.011040   
     63. D(O  19,C   1,C   0,C   4)    -87.1563         0.011040   
     64. D(C   8,C   4,C   0,C   1)     74.1265         0.010393   
     65. D(C   8,C   4,C   0,H   5)    -44.9567         0.010393   
     66. D(H   9,C   4,C   0,H   5)     76.8056         0.010393   
     67. D(H   9,C   4,C   0,N   7)    -42.0012         0.010393   
     68. D(C   8,C   4,C   0,N   7)   -163.7635         0.010393   
     69. D(H   9,C   4,C   0,C   1)   -164.1112         0.010393   
     70. D(H   2,N   7,C   0,H   5)     58.6485         0.016985   
     71. D(H   2,N   7,C   0,C   4)    178.3274         0.016985   
     72. D(H   3,N   7,C   0,C   1)     55.9714         0.016985   
     73. D(H   2,N   7,C   0,C   1)    -61.4500         0.016985   
     74. D(H   3,N   7,C   0,C   4)    -64.2512         0.016985   
     75. D(C  13,C   8,C   4,H  10)    -44.2259         0.011010   
     76. D(C  13,C   8,C   4,H   9)     73.8310         0.011010   
     77. D(C  13,C   8,C   4,C   0)   -165.9835         0.011010   
     78. D(C  11,C   8,C   4,H  10)   -165.9321         0.011010   
     79. D(C  11,C   8,C   4,H   9)    -47.8752         0.011010   
     80. D(C  11,C   8,C   4,C   0)     72.3104         0.011010   
     81. D(H  14,C  11,C   8,H  16)    -61.2255         0.011393   
     82. D(H  14,C  11,C   8,C  13)     57.2438         0.011393   
     83. D(H  14,C  11,C   8,C   4)    178.7409         0.011393   
     84. D(H  12,C  11,C   8,H  16)    179.0655         0.011393   
     85. D(H  12,C  11,C   8,C  13)    -62.4652         0.011393   
     86. D(H  12,C  11,C   8,C   4)     59.0319         0.011393   
     87. D(H   6,C  13,C   8,H  16)   -178.9158         0.011289   
     88. D(H   6,C  13,C   8,C  11)     62.6435         0.011289   
     89. D(H   6,C  13,C   8,C   4)    -60.0163         0.011289   
     90. D(H  17,C  13,C   8,H  16)    -58.8211         0.011289   
     91. D(H  17,C  13,C   8,C  11)   -177.2618         0.011289   
     92. D(H  17,C  13,C   8,C   4)     60.0784         0.011289   
     93. D(H  20,O  19,C   1,O  21)     -1.2912         0.034177   
     94. D(H  20,O  19,C   1,C   0)    178.8628         0.034177   
    -----------------------------------------------------------------

Number of atoms                         .... 22
Number of degrees of freedom            .... 94


         *************************************************************
         *                GEOMETRY OPTIMIZATION CYCLE   1            *
         *************************************************************
---------------------------------
CARTESIAN COORDINATES (ANGSTROEM)
---------------------------------
  C     -9.227360    6.417320   -2.501339
  C     -9.124437    7.201237   -1.201003
  H     -8.544654    7.890131   -3.739679
  H     -7.373105    6.919254   -3.147848
  C     -8.877038    4.943576   -2.223143
  H    -10.250793    6.494236   -2.878046
  H     -8.998055    2.242764   -1.794171
  N     -8.320706    6.926275   -3.514308
  C     -9.960537    4.153144   -1.483212
  H     -8.680045    4.478783   -3.190634
  H     -7.948040    4.920317   -1.647560
  C    -11.155485    3.862852   -2.388185
  H    -10.840263    3.293594   -3.259934
  C     -9.370948    2.841609   -0.966050
  H    -11.901821    3.282727   -1.850454
  H    -11.625146    4.781773   -2.727828
  H    -10.308245    4.739704   -0.626910
  H     -8.547669    3.030321   -0.280709
  H    -10.128033    2.265212   -0.439643
  O    -10.255787    7.183871   -0.487031
  H    -10.143976    7.678734    0.341212
  O     -8.137049    7.785376   -0.836937

----------------------------
CARTESIAN COORDINATES (A.U.)
----------------------------
  NO LB      ZA    FRAG     MASS         X           Y           Z
   0 C     6.0000    0    12.011  -17.437183   12.126977   -4.726846
   1 C     6.0000    0    12.011  -17.242686   13.608366   -2.269567
   2 H     1.0000    0     1.008  -16.147056   14.910187   -7.066968
   3 H     1.0000    0     1.008  -13.933149   13.075494   -5.948570
   4 C     6.0000    0    12.011  -16.775171    9.342005   -4.201132
   5 H     1.0000    0     1.008  -19.371191   12.272327   -5.438718
   6 H     1.0000    0     1.008  -17.003860    4.238210   -3.390492
   7 N     7.0000    0    14.007  -15.723856   13.088763   -6.641080
   8 C     6.0000    0    12.011  -18.822687    7.848304   -2.802864
   9 H     1.0000    0     1.008  -16.402909    8.463674   -6.029424
  10 H     1.0000    0     1.008  -15.019619    9.298052   -3.113438
  11 C     6.0000    0    12.011  -21.080811    7.299732   -4.513015
  12 H     1.0000    0     1.008  -20.485129    6.223991   -6.160383
  13 C     6.0000    0    12.011  -17.708526    5.369863   -1.825570
  14 H     1.0000    0     1.008  -22.491182    6.203455   -3.496851
  15 H     1.0000    0     1.008  -21.968343    9.036242   -5.154848
  16 H     1.0000    0     1.008  -19.479760    8.956742   -1.184689
  17 H     1.0000    0     1.008  -16.152753    5.726476   -0.530463
  18 H     1.0000    0     1.008  -19.139209    4.280631   -0.830804
  19 O     8.0000    0    15.999  -19.380629   13.575549   -0.920355
  20 H     1.0000    0     1.008  -19.169336   14.510703    0.644798
  21 O     8.0000    0    15.999  -15.376793   14.712228   -1.581581

--------------------------------
INTERNAL COORDINATES (ANGSTROEM)
--------------------------------
 C      0   0   0     0.000000000000     0.00000000     0.00000000
 C      1   0   0     1.521838469869     0.00000000     0.00000000
 H      1   2   0     2.041750790171    97.12549540     0.00000000
 H      3   1   2     1.632603483481    65.86483780    89.92221871
 C      1   2   3     1.540142436972   108.85546191   144.43243774
 H      1   2   3     1.093269454376   108.75292002   264.30998168
 H      5   1   2     2.737343273719   164.23171523   104.94148675
 N      3   1   2     1.014870717857    41.75590546   124.79440497
 C      5   1   2     1.531747688938   114.84372666    74.12653747
 H      5   1   2     1.091272791577   106.76669778   195.88878065
 H      5   1   2     1.093103138199   107.98601808   311.48395051
 C      9   5   1     1.526808891139   111.43237812    72.31035411
 H     12   9   5     1.087826150776   110.34637973    59.03186240
 C      7   5   1     1.087864456899    65.87784800   287.33714550
 H     12   9   5     1.087527715312   110.20946560   178.74085812
 H     12   9   5     1.086441999214   111.27319244   298.52770589
 H      9   5   1     1.094625966798   109.03009304   312.60279680
 H     14   7   5     1.087700996483   108.40309271   268.47017522
 H     14   7   5     1.087435451532   108.38268453   151.13539123
 O      2   1   3     1.337913310747   113.08515806   128.41123085
 H     20   2   1     0.971276150228   110.55473371   178.86280065
 O      2   1   3     1.203618637590   124.32774278   308.56835082

---------------------------
INTERNAL COORDINATES (A.U.)
---------------------------
 C      0   0   0     0.000000000000     0.00000000     0.00000000
 C      1   0   0     2.875857928119     0.00000000     0.00000000
 H      1   2   0     3.858349827140    97.12549540     0.00000000
 H      3   1   2     3.085173469066    65.86483780    89.92221871
 C      1   2   3     2.910447413108   108.85546191   144.43243774
 H      1   2   3     2.065979859351   108.75292002   264.30998168
 H      5   1   2     5.172829121861   164.23171523   104.94148675
 N      3   1   2     1.917827718086    41.75590546   124.79440497
 C      5   1   2     2.894583638359   114.84372666    74.12653747
 H      5   1   2     2.062206713480   106.76669778   195.88878065
 H      5   1   2     2.065665567327   107.98601808   311.48395051
 C      9   5   1     2.885250663088   111.43237812    72.31035411
 H     12   9   5     2.055693506284   110.34637973    59.03186240
 C      7   5   1     2.055765894367    65.87784800   287.33714550
 H     12   9   5     2.055129544988   110.20946560   178.74085812
 H     12   9   5     2.053077838905   111.27319244   298.52770589
 H      9   5   1     2.068543296327   109.03009304   312.60279680
 H     14   7   5     2.055456998946   108.40309271   268.47017522
 H     14   7   5     2.054955191712   108.38268453   151.13539123
 O      2   1   3     2.528289748241   113.08515806   128.41123085
 H     20   2   1     1.835445924340   110.55473371   178.86280065
 O      2   1   3     2.274509594728   124.32774278   308.56835082

---------------------
BASIS SET INFORMATION
---------------------
There are 4 groups of distinct atoms

 Group   1 Type C   : 10s4p1d contracted to 3s2p1d pattern {631/31/1}
 Group   2 Type H   : 4s1p contracted to 2s1p pattern {31/1}
 Group   3 Type N   : 10s4p1d contracted to 3s2p1d pattern {631/31/1}
 Group   4 Type O   : 10s4p1d contracted to 3s2p1d pattern {631/31/1}

Atom   0C    basis set group =>   1
Atom   1C    basis set group =>   1
Atom   2H    basis set group =>   2
Atom   3H    basis set group =>   2
Atom   4C    basis set group =>   1
Atom   5H    basis set group =>   2
Atom   6H    basis set group =>   2
Atom   7N    basis set group =>   3
Atom   8C    basis set group =>   1
Atom   9H    basis set group =>   2
Atom  10H    basis set group =>   2
Atom  11C    basis set group =>   1
Atom  12H    basis set group =>   2
Atom  13C    basis set group =>   1
Atom  14H    basis set group =>   2
Atom  15H    basis set group =>   2
Atom  16H    basis set group =>   2
Atom  17H    basis set group =>   2
Atom  18H    basis set group =>   2
Atom  19O    basis set group =>   4
Atom  20H    basis set group =>   2
Atom  21O    basis set group =>   4
------------------------------------------------------------------------------
                             ORCA STARTUP CALCULATIONS
------------------------------------------------------------------------------
------------------------------------------------------------------------------
                   ___                                                        
                  /   \      - P O W E R E D   B Y -                         
                 /     \                                                     
                 |  |  |   _    _      __       _____    __    __             
                 |  |  |  | |  | |    /  \     |  _  \  |  |  /  |          
                  \  \/   | |  | |   /    \    | | | |  |  | /  /          
                 / \  \   | |__| |  /  /\  \   | |_| |  |  |/  /          
                |  |  |   |  __  | /  /__\  \  |    /   |      \           
                |  |  |   | |  | | |   __   |  |    \   |  |\   \          
                \     /   | |  | | |  |  |  |  | |\  \  |  | \   \       
                 \___/    |_|  |_| |__|  |__|  |_| \__\ |__|  \__/        
                                                                              
                      - O R C A' S   B I G   F R I E N D -                    
                                      &                                       
                       - I N T E G R A L  F E E D E R -                       
                                                                              
 v1 FN, 2020, v2 2021, v3 2022-2024                                           
------------------------------------------------------------------------------


----------------------
SHARK INTEGRAL PACKAGE
----------------------

Number of atoms                             ...     22
Number of basis functions                   ...    191
Number of shells                            ...     93
Maximum angular momentum                    ...      2
Integral batch strategy                     ... SHARK/LIBINT Hybrid
RI-J (if used) integral strategy            ... SPLIT-RIJ (Revised 2003 algorithm where possible)
Printlevel                                  ...      1
Contraction scheme used                     ... SEGMENTED contraction
Prescreening option                         ... SCHWARTZ
   Thresh                                   ... 2.500e-11
   Tcut                                     ... 2.500e-12
   Tpresel                                  ... 2.500e-12 
Coulomb Range Separation                    ... NOT USED
Exchange Range Separation                   ... NOT USED
Multipole approximations                    ... NOT USED
Finite Nucleus Model                        ... NOT USED
CABS basis                                  ... NOT available
Auxiliary Coulomb fitting basis             ... NOT available
Auxiliary J/K fitting basis                 ... NOT available
Auxiliary Correlation fitting basis         ... NOT available
Auxiliary 'external' fitting basis          ... NOT available

Checking pre-screening integrals            ... done (  0.0 sec) Dimension = 93
   => SHARK Basis and OBASIS are compatible. Storing Pre-screening
Shell pair information
Shell pair cut-off parameter TPreSel        ...   2.5e-12
Total number of shell pairs                 ...      4371
Shell pairs after pre-screening             ...      3910
Total number of primitive shell pairs       ...     20328
Primitive shell pairs kept                  ...     12147
          la=0 lb=0:   1294 shell pairs
          la=1 lb=0:   1461 shell pairs
          la=1 lb=1:    437 shell pairs
          la=2 lb=0:    428 shell pairs
          la=2 lb=1:    248 shell pairs
          la=2 lb=2:     42 shell pairs

Checking whether 4 symmetric matrices of dimension 191 fit in memory
:Max Core in MB      =   4096.00
 MB in use           =      6.42
 MB left             =   4089.58
 MB needed           =      0.56
 Data fit in memory  = YES
Calculating Nuclear repulsion               ... done (  0.0 sec) ENN=    487.641982138402 Eh

Diagonalization of the overlap matrix:
Smallest eigenvalue                        ... 2.995e-03
Time for diagonalization                   ...    0.002 sec
Threshold for overlap eigenvalues          ... 1.000e-07
Number of eigenvalues below threshold      ... 0
Time for construction of square roots      ...    0.001 sec
Total time needed                          ...    0.003 sec

-------------------
DFT GRID GENERATION
-------------------

General Integration Accuracy     IntAcc      ... 4.388
Radial Grid Type                 RadialGrid  ... OptM3 with GC (2021)
Angular Grid (max. ang.)         AngularGrid ... 4 (Lebedev-302)
Angular grid pruning method      GridPruning ... 4 (adaptive)
Weight generation scheme         WeightScheme... mBecke (2022)
Basis function cutoff            BFCut       ... 1.0000e-11
Integration weight cutoff        WCut        ... 1.0000e-14
Partially contracted basis set               ... off
Rotationally invariant grid construction     ... off
Angular grids for H and He will be reduced by one unit

Total number of grid points                  ...    95639
Total number of batches                      ...     1507
Average number of points per batch           ...       63
Average number of grid points per atom       ...     4347
Grids setup in   0.4 sec
Initializing property integral containers    ... done (  0.0 sec)

SHARK setup successfully completed in   0.4 seconds

Maximum memory used throughout the entire STARTUP-calculation: 38.4 MB
-------------------------------------------------------------------------------
                                 ORCA GUESS
                   Start orbitals & Density for SCF / CASSCF
-------------------------------------------------------------------------------

------------
SCF SETTINGS
------------
Hamiltonian:
 Ab initio Hamiltonian  Method          .... Hartree-Fock(GTOs)


General Settings:
 Integral files         IntName         .... 3
 Hartree-Fock type      HFTyp           .... RHF
 Total Charge           Charge          ....    0
 Multiplicity           Mult            ....    1
 Number of Electrons    NEL             ....   72
 Basis Dimension        Dim             ....  191
 Nuclear Repulsion      ENuc            ....    487.6419821384 Eh

Convergence Acceleration:
 AO-DIIS                CNVDIIS         .... on
   Start iteration      DIISMaxIt       ....    12
   Startup error        DIISStart       ....  0.200000
   # of expansion vecs  DIISMaxEq       ....     5
   Bias factor          DIISBfac        ....   1.050
   Max. coefficient     DIISMaxC        ....  10.000
 MO-DIIS                CNVKDIIS        .... off
 Trust-Rad. Augm. Hess. CNVTRAH         .... auto
   Auto Start mean grad. ratio tolernc. ....  1.125000
   Auto Start start iteration           ....    50
   Auto Start num. interpolation iter.  ....    10
   Max. Number of Micro iterations      ....    24
   Max. Number of Macro iterations      .... Maxiter - #DIIS iter
   Number of Davidson start vectors     ....     2
   Converg. threshold    (grad. norm)   ....   1.000e-05
   Grad. Scal. Fac. for Micro threshold ....   0.100
   Minimum threshold for Micro iter.    ....   1.000e-02
   NR start threshold (gradient norm)   ....   1.000e-04
   Initial trust radius                 ....   0.400
   Minimum AH scaling param. (alpha)    ....   1.000
   Maximum AH scaling param. (alpha)    .... 1000.000
   Quad. conv. algorithm                .... NR
   White noise on init. David. guess    .... on
   Maximum white noise                  ....   0.010
   Pseudo random numbers                .... off
   Inactive MOs                         .... canonical
   Orbital update algorithm             .... Taylor
   Preconditioner                       .... Diag
   Full preconditioner red. dimension   ....   250
 SOSCF                 CNVSOSCF           .... on
   Start iteration     SOSCFMaxIt         ....   150
   Startup grad/error  SOSCFStart         ....  0.003300
   Hessian update      SOSCFHessUp        .... L-BFGS
   Autom. constraints  SOSCFAutoConstrain .... off
 Level Shifting         CNVShift        .... on
   Level shift para.    LevelShift      ....    0.2500
   Turn off err/grad.   ShiftErr        ....    0.0010
 Zerner damping         CNVZerner       .... off
 Static damping         CNVDamp         .... on
   Fraction old density DampFac         ....    0.7000
   Max. Damping (<1)    DampMax         ....    0.9800
   Min. Damping (>=0)   DampMin         ....    0.0000
   Turn off err/grad.   DampErr         ....    0.1000

SCF Procedure:
 Maximum # iterations   MaxIter         ....   125
 SCF integral mode      SCFMode         .... Direct
   Integral package                     .... SHARK and LIBINT hybrid scheme
 Reset frequency        DirectResetFreq ....    20
 Integral Threshold     Thresh          ....  2.500e-11 Eh
 Primitive CutOff       TCut            ....  2.500e-12 Eh

Convergence Tolerance:
 Convergence Check Mode ConvCheckMode   .... Total+1el-Energy
 Convergence forced     ConvForced      .... 1
 Energy Change          TolE            ....  1.000e-08 Eh
 1-El. energy change                    ....  1.000e-05 Eh
 Orbital Gradient       TolG            ....  1.000e-05
 Orbital Rotation angle TolX            ....  1.000e-05
 DIIS Error             TolErr          ....  5.000e-07

------------------------------
INITIAL GUESS: MODEL POTENTIAL
------------------------------
Loading Hartree-Fock densities                     ... done
Calculating cut-offs                               ... done
Initializing the effective Hamiltonian             ... done
Setting up the integral package (SHARK)            ... done
Starting the Coulomb interaction                   ... done (   0.1 sec)
Making the grid                                    ... done (   0.1 sec)
Mapping shells                                     ... done
Starting the XC term evaluation                    ... done (   0.0 sec)
Transforming the Hamiltonian                       ... done (   0.0 sec)
Diagonalizing the Hamiltonian                      ... done (   0.0 sec)
Back transforming the eigenvectors                 ... done (   0.0 sec)
Now organizing SCF variables                       ... done
                      ------------------
                      INITIAL GUESS DONE (   0.2 sec)
                      ------------------
             **** ENERGY FILE WAS UPDATED (3.en.tmp) ****
Finished Guess after   0.3 sec
Maximum memory used throughout the entire GUESS-calculation: 11.6 MB

-------------------------------------------------------------------------------------------
                                      ORCA LEAN-SCF
                              memory conserving SCF solver
-------------------------------------------------------------------------------------------

----------------------------------------D-I-I-S--------------------------------------------
Iteration    Energy (Eh)           Delta-E    RMSDP     MaxDP     DIISErr   Damp  Time(sec)
-------------------------------------------------------------------------------------------
               ***  Starting incremental Fock matrix formation  ***
    1    -438.5394410567170098     0.00e+00  2.47e-03  6.19e-02  2.44e-01  0.700   2.0
    2    -438.7031094763099190    -1.64e-01  1.88e-03  4.47e-02  1.52e-01  0.700   1.9
                               ***Turning on AO-DIIS***
    3    -438.7992593002295507    -9.61e-02  1.02e-03  2.23e-02  8.52e-02  0.700   1.8
    4    -438.8595960986290265    -6.03e-02  2.29e-03  4.66e-02  5.90e-02  0.000   1.8
    5    -438.9926684481563370    -1.33e-01  2.71e-04  5.88e-03  5.43e-03  0.000   1.9
                              *** Initializing SOSCF ***
---------------------------------------S-O-S-C-F--------------------------------------
Iteration    Energy (Eh)           Delta-E    RMSDP     MaxDP     MaxGrad    Time(sec)
--------------------------------------------------------------------------------------
    6    -438.9931564606741858    -4.88e-04  1.30e-04  2.78e-03  2.90e-03     1.7
               *** Restarting incremental Fock matrix formation ***
    7    -438.9932638956225901    -1.07e-04  7.69e-05  2.51e-03  1.45e-03     2.0
    8    -438.9932946691092184    -3.08e-05  7.46e-05  1.63e-03  4.39e-04     1.6
    9    -438.9933055952766381    -1.09e-05  1.25e-05  2.51e-04  1.81e-04     1.6
   10    -438.9933062987926178    -7.04e-07  7.69e-06  1.54e-04  4.78e-05     1.5
   11    -438.9933064343492788    -1.36e-07  1.68e-06  4.69e-05  1.83e-05     1.4
   12    -438.9933064460393553    -1.17e-08  4.55e-07  1.61e-05  4.17e-06     1.2
   13    -438.9933064473625564    -1.32e-09  1.57e-07  4.01e-06  1.13e-06     1.1
                 **** Energy Check signals convergence ****

               *****************************************************
               *                     SUCCESS                       *
               *           SCF CONVERGED AFTER  13 CYCLES          *
               *****************************************************

             **** ENERGY FILE WAS UPDATED (3.en.tmp) ****

----------------
TOTAL SCF ENERGY
----------------

Total Energy       :       -438.99330644899078 Eh          -11945.61517 eV

Components:
Nuclear Repulsion  :        487.64198213840154 Eh           13269.41294 eV
Electronic Energy  :       -926.63528858739232 Eh          -25215.02811 eV
One Electron Energy:      -1565.80987842311788 Eh          -42607.85293 eV
Two Electron Energy:        639.17458983572556 Eh           17392.82482 eV

Virial components:
Potential Energy   :       -877.61718443365999 Eh          -23881.17768 eV
Kinetic Energy     :        438.62387798466915 Eh           11935.56251 eV
Virial Ratio       :          2.00084224430740

---------------
SCF CONVERGENCE
---------------

  Last Energy change         ...    1.3232e-09  Tolerance :   1.0000e-08
  Last MAX-Density change    ...    4.0120e-06  Tolerance :   1.0000e-07
  Last RMS-Density change    ...    1.5705e-07  Tolerance :   5.0000e-09
  Last DIIS Error            ...    2.9032e-03  Tolerance :   5.0000e-07
  Last Orbital Gradient      ...    1.1262e-06  Tolerance :   1.0000e-05
  Last Orbital Rotation      ...    1.7910e-06  Tolerance :   1.0000e-05


----------------
ORBITAL ENERGIES
----------------

  NO   OCC          E(Eh)            E(eV) 
   0   2.0000     -20.620010      -561.0990 
   1   2.0000     -20.553741      -559.2957 
   2   2.0000     -15.546574      -423.0438 
   3   2.0000     -11.382412      -309.7312 
   4   2.0000     -11.271262      -306.7066 
   5   2.0000     -11.226033      -305.4759 
   6   2.0000     -11.224849      -305.4437 
   7   2.0000     -11.210903      -305.0642 
   8   2.0000     -11.210748      -305.0600 
   9   2.0000      -1.469834       -39.9962 
  10   2.0000      -1.362736       -37.0819 
  11   2.0000      -1.196404       -32.5558 
  12   2.0000      -1.092929       -29.7401 
  13   2.0000      -0.993458       -27.0334 
  14   2.0000      -0.932345       -25.3704 
  15   2.0000      -0.903743       -24.5921 
  16   2.0000      -0.808275       -21.9943 
  17   2.0000      -0.769449       -20.9378 
  18   2.0000      -0.712593       -19.3907 
  19   2.0000      -0.698042       -18.9947 
  20   2.0000      -0.666299       -18.1309 
  21   2.0000      -0.638087       -17.3632 
  22   2.0000      -0.617759       -16.8101 
  23   2.0000      -0.605772       -16.4839 
  24   2.0000      -0.598142       -16.2763 
  25   2.0000      -0.580291       -15.7905 
  26   2.0000      -0.545030       -14.8310 
  27   2.0000      -0.538932       -14.6651 
  28   2.0000      -0.528877       -14.3915 
  29   2.0000      -0.506577       -13.7847 
  30   2.0000      -0.488608       -13.2957 
  31   2.0000      -0.464641       -12.6435 
  32   2.0000      -0.461967       -12.5708 
  33   2.0000      -0.454879       -12.3779 
  34   2.0000      -0.448783       -12.2120 
  35   2.0000      -0.399364       -10.8673 
  36   0.0000       0.180545         4.9129 
  37   0.0000       0.218522         5.9463 
  38   0.0000       0.233454         6.3526 
  39   0.0000       0.243577         6.6281 
  40   0.0000       0.259438         7.0597 
  41   0.0000       0.282518         7.6877 
  42   0.0000       0.291973         7.9450 
  43   0.0000       0.301109         8.1936 
  44   0.0000       0.326622         8.8878 
  45   0.0000       0.332139         9.0380 
  46   0.0000       0.334952         9.1145 
*Only the first 10 virtual orbitals were printed.

                    ********************************
                    * MULLIKEN POPULATION ANALYSIS *
                    ********************************

-----------------------
MULLIKEN ATOMIC CHARGES
-----------------------
   0 C :   -0.032062
   1 C :    0.789130
   2 H :    0.271200
   3 H :    0.282515
   4 C :   -0.219964
   5 H :    0.156639
   6 H :    0.109070
   7 N :   -0.678780
   8 C :   -0.151320
   9 H :    0.147339
  10 H :    0.123253
  11 C :   -0.315488
  12 H :    0.110374
  13 C :   -0.318537
  14 H :    0.113658
  15 H :    0.109821
  16 H :    0.134778
  17 H :    0.111270
  18 H :    0.111840
  19 O :   -0.635274
  20 H :    0.370937
  21 O :   -0.590400
Sum of atomic charges:    0.0000000

--------------------------------
MULLIKEN REDUCED ORBITAL CHARGES
--------------------------------
  0 C s       :     3.200681  s :     3.200681
      pz      :     0.799370  p :     2.761233
      px      :     1.017202
      py      :     0.944661
      dz2     :     0.016768  d :     0.070147
      dxz     :     0.013637
      dyz     :     0.016438
      dx2y2   :     0.015516
      dxy     :     0.007788

  1 C s       :     2.952821  s :     2.952821
      pz      :     0.785367  p :     2.112043
      px      :     0.628047
      py      :     0.698629
      dz2     :     0.022593  d :     0.146007
      dxz     :     0.042874
      dyz     :     0.017392
      dx2y2   :     0.035537
      dxy     :     0.027611

  2 H s       :     0.702767  s :     0.702767
      pz      :     0.007214  p :     0.026032
      px      :     0.004254
      py      :     0.014564

  3 H s       :     0.691386  s :     0.691386
      pz      :     0.006809  p :     0.026099
      px      :     0.014443
      py      :     0.004847

  4 C s       :     3.242177  s :     3.242177
      pz      :     1.067440  p :     2.929846
      px      :     0.987146
      py      :     0.875261
      dz2     :     0.008161  d :     0.047942
      dxz     :     0.011434
      dyz     :     0.008695
      dx2y2   :     0.012753
      dxy     :     0.006898

  5 H s       :     0.831180  s :     0.831180
      pz      :     0.002180  p :     0.012180
      px      :     0.008394
      py      :     0.001607

  6 H s       :     0.878328  s :     0.878328
      pz      :     0.005917  p :     0.012601
      px      :     0.002669
      py      :     0.004015

  7 N s       :     3.604999  s :     3.604999
      pz      :     1.537749  p :     4.039004
      px      :     1.156222
      py      :     1.345034
      dz2     :     0.005867  d :     0.034777
      dxz     :     0.011382
      dyz     :     0.002203
      dx2y2   :     0.013049
      dxy     :     0.002275

  8 C s       :     3.236832  s :     3.236832
      pz      :     0.989484  p :     2.858890
      px      :     0.918477
      py      :     0.950930
      dz2     :     0.006486  d :     0.055598
      dxz     :     0.014383
      dyz     :     0.013317
      dx2y2   :     0.009121
      dxy     :     0.012291

  9 H s       :     0.840161  s :     0.840161
      pz      :     0.007796  p :     0.012501
      px      :     0.001898
      py      :     0.002807

 10 H s       :     0.864299  s :     0.864299
      pz      :     0.003770  p :     0.012448
      px      :     0.007053
      py      :     0.001625

 11 C s       :     3.246143  s :     3.246143
      pz      :     1.007601  p :     3.027104
      px      :     0.974738
      py      :     1.044765
      dz2     :     0.004883  d :     0.042241
      dxz     :     0.011339
      dyz     :     0.010389
      dx2y2   :     0.005308
      dxy     :     0.010323

 12 H s       :     0.877040  s :     0.877040
      pz      :     0.006456  p :     0.012586
      px      :     0.002336
      py      :     0.003794

 13 C s       :     3.248193  s :     3.248193
      pz      :     1.030799  p :     3.028032
      px      :     1.034844
      py      :     0.962388
      dz2     :     0.002853  d :     0.042312
      dxz     :     0.012854
      dyz     :     0.010986
      dx2y2   :     0.006178
      dxy     :     0.009441

 14 H s       :     0.873672  s :     0.873672
      pz      :     0.003536  p :     0.012670
      px      :     0.005217
      py      :     0.003917

 15 H s       :     0.877451  s :     0.877451
      pz      :     0.002573  p :     0.012728
      px      :     0.003269
      py      :     0.006886

 16 H s       :     0.852576  s :     0.852576
      pz      :     0.006172  p :     0.012646
      px      :     0.002459
      py      :     0.004014

 17 H s       :     0.876088  s :     0.876088
      pz      :     0.004691  p :     0.012642
      px      :     0.005964
      py      :     0.001986

 18 H s       :     0.875510  s :     0.875510
      pz      :     0.003514  p :     0.012649
      px      :     0.005253
      py      :     0.003882

 19 O s       :     3.837464  s :     3.837464
      pz      :     1.424149  p :     4.772520
      px      :     1.593940
      py      :     1.754431
      dz2     :     0.003311  d :     0.025289
      dxz     :     0.006734
      dyz     :     0.004478
      dx2y2   :     0.006752
      dxy     :     0.004014

 20 H s       :     0.587615  s :     0.587615
      pz      :     0.021712  p :     0.041448
      px      :     0.006450
      py      :     0.013286

 21 O s       :     3.873885  s :     3.873885
      pz      :     1.715352  p :     4.683883
      px      :     1.488282
      py      :     1.480250
      dz2     :     0.003964  d :     0.032631
      dxz     :     0.007477
      dyz     :     0.002223
      dx2y2   :     0.009500
      dxy     :     0.009468



                     *******************************
                     * LOEWDIN POPULATION ANALYSIS *
                     *******************************

----------------------
LOEWDIN ATOMIC CHARGES
----------------------
   0 C :   -0.025113
   1 C :    0.230017
   2 H :    0.128746
   3 H :    0.135049
   4 C :   -0.101306
   5 H :    0.077420
   6 H :    0.061768
   7 N :   -0.274801
   8 C :   -0.073266
   9 H :    0.076035
  10 H :    0.064721
  11 C :   -0.177725
  12 H :    0.062199
  13 C :   -0.177110
  14 H :    0.064321
  15 H :    0.061124
  16 H :    0.064513
  17 H :    0.061972
  18 H :    0.062923
  19 O :   -0.208363
  20 H :    0.200647
  21 O :   -0.313771

-------------------------------
LOEWDIN REDUCED ORBITAL CHARGES
-------------------------------
  0 C s       :     2.868746  s :     2.868746
      pz      :     0.959118  p :     3.016281
      px      :     1.032084
      py      :     1.025079
      dz2     :     0.035033  d :     0.140086
      dxz     :     0.026514
      dyz     :     0.033986
      dx2y2   :     0.029394
      dxy     :     0.015159

  1 C s       :     2.849834  s :     2.849834
      pz      :     0.914792  p :     2.603861
      px      :     0.907015
      py      :     0.782055
      dz2     :     0.049301  d :     0.316289
      dxz     :     0.092875
      dyz     :     0.035731
      dx2y2   :     0.078911
      dxy     :     0.059471

  2 H s       :     0.790024  s :     0.790024
      pz      :     0.022881  p :     0.081230
      px      :     0.012963
      py      :     0.045387

  3 H s       :     0.783011  s :     0.783011
      pz      :     0.023091  p :     0.081941
      px      :     0.043566
      py      :     0.015283

  4 C s       :     2.895275  s :     2.895275
      pz      :     1.076612  p :     3.115191
      px      :     1.051012
      py      :     0.987567
      dz2     :     0.014716  d :     0.090840
      dxz     :     0.020059
      dyz     :     0.016529
      dx2y2   :     0.025068
      dxy     :     0.014468

  5 H s       :     0.882431  s :     0.882431
      pz      :     0.008035  p :     0.040149
      px      :     0.025068
      py      :     0.007046

  6 H s       :     0.898507  s :     0.898507
      pz      :     0.017761  p :     0.039725
      px      :     0.009084
      py      :     0.012879

  7 N s       :     3.189202  s :     3.189202
      pz      :     1.527349  p :     4.024157
      px      :     1.164919
      py      :     1.331889
      dz2     :     0.009822  d :     0.061442
      dxz     :     0.018360
      dyz     :     0.005436
      dx2y2   :     0.022513
      dxy     :     0.005311

  8 C s       :     2.872427  s :     2.872427
      pz      :     1.044963  p :     3.091234
      px      :     1.019292
      py      :     1.026978
      dz2     :     0.012511  d :     0.109605
      dxz     :     0.028521
      dyz     :     0.025044
      dx2y2   :     0.018645
      dxy     :     0.024882

  9 H s       :     0.883333  s :     0.883333
      pz      :     0.023364  p :     0.040632
      px      :     0.007443
      py      :     0.009826

 10 H s       :     0.895341  s :     0.895341
      pz      :     0.012167  p :     0.039937
      px      :     0.021415
      py      :     0.006355

 11 C s       :     2.907035  s :     2.907035
      pz      :     1.066063  p :     3.195339
      px      :     1.050191
      py      :     1.079084
      dz2     :     0.009031  d :     0.075350
      dxz     :     0.020807
      dyz     :     0.017630
      dx2y2   :     0.009811
      dxy     :     0.018071

 12 H s       :     0.898061  s :     0.898061
      pz      :     0.019549  p :     0.039740
      px      :     0.008021
      py      :     0.012169

 13 C s       :     2.908539  s :     2.908539
      pz      :     1.074337  p :     3.193136
      px      :     1.074194
      py      :     1.044606
      dz2     :     0.005070  d :     0.075435
      dxz     :     0.021476
      dyz     :     0.019797
      dx2y2   :     0.011780
      dxy     :     0.017313

 14 H s       :     0.896023  s :     0.896023
      pz      :     0.011225  p :     0.039656
      px      :     0.016110
      py      :     0.012321

 15 H s       :     0.898883  s :     0.898883
      pz      :     0.008670  p :     0.039993
      px      :     0.010673
      py      :     0.020650

 16 H s       :     0.895151  s :     0.895151
      pz      :     0.018855  p :     0.040336
      px      :     0.008727
      py      :     0.012755

 17 H s       :     0.898468  s :     0.898468
      pz      :     0.014540  p :     0.039560
      px      :     0.017982
      py      :     0.007039

 18 H s       :     0.897469  s :     0.897469
      pz      :     0.011319  p :     0.039608
      px      :     0.015931
      py      :     0.012358

 19 O s       :     3.459426  s :     3.459426
      pz      :     1.400212  p :     4.700776
      px      :     1.592831
      py      :     1.707733
      dz2     :     0.008674  d :     0.048161
      dxz     :     0.014335
      dyz     :     0.008489
      dx2y2   :     0.010935
      dxy     :     0.005728

 20 H s       :     0.679194  s :     0.679194
      pz      :     0.059652  p :     0.120160
      px      :     0.021236
      py      :     0.039272

 21 O s       :     3.548019  s :     3.548019
      pz      :     1.692746  p :     4.708606
      px      :     1.536170
      py      :     1.479689
      dz2     :     0.007185  d :     0.057146
      dxz     :     0.013279
      dyz     :     0.004911
      dx2y2   :     0.013953
      dxy     :     0.017818



                      *****************************
                      * MAYER POPULATION ANALYSIS *
                      *****************************

  NA   - Mulliken gross atomic population
  ZA   - Total nuclear charge
  QA   - Mulliken gross atomic charge
  VA   - Mayer's total valence
  BVA  - Mayer's bonded valence
  FA   - Mayer's free valence

  ATOM       NA         ZA         QA         VA         BVA        FA
  0 C      6.0321     6.0000    -0.0321     3.7542     3.7542     0.0000
  1 C      5.2109     6.0000     0.7891     3.6669     3.6669     0.0000
  2 H      0.7288     1.0000     0.2712     0.9060     0.9060     0.0000
  3 H      0.7175     1.0000     0.2825     0.9059     0.9059     0.0000
  4 C      6.2200     6.0000    -0.2200     3.7505     3.7505     0.0000
  5 H      0.8434     1.0000     0.1566     0.9413     0.9413     0.0000
  6 H      0.8909     1.0000     0.1091     0.9528     0.9528     0.0000
  7 N      7.6788     7.0000    -0.6788     2.7771     2.7771     0.0000
  8 C      6.1513     6.0000    -0.1513     3.7875     3.7875     0.0000
  9 H      0.8527     1.0000     0.1473     0.9519     0.9519    -0.0000
 10 H      0.8767     1.0000     0.1233     0.9533     0.9533    -0.0000
 11 C      6.3155     6.0000    -0.3155     3.8390     3.8390    -0.0000
 12 H      0.8896     1.0000     0.1104     0.9533     0.9533    -0.0000
 13 C      6.3185     6.0000    -0.3185     3.8434     3.8434    -0.0000
 14 H      0.8863     1.0000     0.1137     0.9541     0.9541    -0.0000
 15 H      0.8902     1.0000     0.1098     0.9535     0.9535     0.0000
 16 H      0.8652     1.0000     0.1348     0.9472     0.9472    -0.0000
 17 H      0.8887     1.0000     0.1113     0.9535     0.9535     0.0000
 18 H      0.8882     1.0000     0.1118     0.9541     0.9541     0.0000
 19 O      8.6353     8.0000    -0.6353     1.8256     1.8256     0.0000
 20 H      0.6291     1.0000     0.3709     0.8730     0.8730     0.0000
 21 O      8.5904     8.0000    -0.5904     1.8940     1.8940     0.0000

  Mayer bond orders larger than 0.100000
B(  0-C ,  1-C ) :   0.9027 B(  0-C ,  4-C ) :   0.9604 B(  0-C ,  5-H ) :   0.9576 
B(  0-C ,  7-N ) :   0.9989 B(  1-C , 19-O ) :   0.9641 B(  1-C , 21-O ) :   1.8281 
B(  2-H ,  7-N ) :   0.9107 B(  3-H ,  7-N ) :   0.8978 B(  4-C ,  8-C ) :   0.9612 
B(  4-C ,  9-H ) :   0.9630 B(  4-C , 10-H ) :   0.9683 B(  6-H , 13-C ) :   0.9722 
B(  8-C , 11-C ) :   0.9746 B(  8-C , 13-C ) :   0.9790 B(  8-C , 16-H ) :   0.9642 
B( 11-C , 12-H ) :   0.9717 B( 11-C , 14-H ) :   0.9768 B( 11-C , 15-H ) :   0.9761 
B( 13-C , 17-H ) :   0.9766 B( 13-C , 18-H ) :   0.9769 B( 19-O , 20-H ) :   0.8402 


-------
TIMINGS
-------

Total SCF time: 0 days 0 hours 0 min 22 sec 

Total time                  ....      22.463 sec
Sum of individual times     ....      21.482 sec  ( 95.6%)

SCF preparation             ....       0.020 sec  (  0.1%)
Fock matrix formation       ....      21.404 sec  ( 95.3%)
  Startup                   ....       0.001 sec  (  0.0% of F)
  Coulomb+Exchange Fock     ....      22.366 sec  (104.5% of F)
Diagonalization             ....       0.000 sec  (  0.0%)
Density matrix formation    ....       0.004 sec  (  0.0%)
Total Energy calculation    ....       0.001 sec  (  0.0%)
Population analysis         ....       0.003 sec  (  0.0%)
Orbital Transformation      ....       0.006 sec  (  0.0%)
Orbital Orthonormalization  ....       0.000 sec  (  0.0%)
DIIS solution               ....       0.026 sec  (  0.1%)
SOSCF solution              ....       0.017 sec  (  0.1%)
Finished LeanSCF after  22.5 sec

Maximum memory used throughout the entire LEANSCF-calculation: 15.2 MB

------------------------------------------------------------------------------
                                ORCA  MP2 
------------------------------------------------------------------------------

Freezing NCore=18 chemical core electrons
MP2 will be done in the AO integral direct mode
The Q1-step will be done using symmetric double matrices
Dimension of the basis                    ...  191
Memory devoted for MP2                    ... 4096 MB   
Memory needed for all in one shot         ...  722 MB
Number of MOs that can be treated together...  152      
MP2 density construction                  ... relaxed
The MP2 gradient is requested => amplitudes will be stored on disk
Total number of MOs              ...   27
Number of MOs treated per batch  ...   27 
Number of batches necessary      ...    1 
OPERATORS   0/  0 PASS   0
-----------------------------------------------
 MP2 CORRELATION ENERGY   :     -1.368805223 Eh
-----------------------------------------------


---------------------
MP2 DENSITY FORMATION
---------------------

Completing the external part of the density      ... done
Storing the unrelaxed density                    ... done

Calculating G(D)                                 ... done
Completing the Lagrangian                        ... done
Solving the Z-vector equations                   ... 
-------------------
SHARK CP-SCF DRIVER
-------------------

Dimension of the orbital basis          ...    191
Dimension of the CPSCF-problem          ...   5580
Number of operators                     ...      1
Max. number of iterations               ...    128
Convergence Tolerance                   ... 1.0e-04
Number of perturbations                 ...      1
Perturbation type                       ... REAL

----------------------------
POPLE LINEAR EQUATION SOLVER
----------------------------

  ITERATION   0:   ||err||_max =   1.2685e-01 (   2.5 sec)
  ITERATION   1:   ||err||_max =   3.3012e-02 (   2.6 sec)
  ITERATION   2:   ||err||_max =   1.4256e-02 (   2.6 sec)
  ITERATION   3:   ||err||_max =   3.4292e-03 (   2.6 sec)
  ITERATION   4:   ||err||_max =   1.2924e-03 (   2.6 sec)
  ITERATION   5:   ||err||_max =   3.0852e-04 (   2.6 sec)
  ITERATION   6:   ||err||_max =   9.9424e-05 (   2.6 sec)
                                                 ... done
Finalizing the relaxed density                   ... done
Transforming P to the AO basis                   ... done
Storing the relaxed density                      ... done

------------------------------------
ENERGY WEIGHTED DENSITY FINALIZATION
------------------------------------

Gathering the parts of the W-matrix              ...                                                      done
Forming the Z-density                            ... done
Transforming Z to the AO basis                   ... done
Calculating G(Z)                                 ... done
Finalizing the W-matrix                          ...                                                      done
Transforming W to the AO basis and storing       ... done

                *********************************************
                * UNRELAXED MP2 DENSITY POPULATION ANALYSIS *
                *********************************************

------------------------------------------------------------------------------
                           ORCA POPULATION ANALYSIS
------------------------------------------------------------------------------
Input electron density              ... 3.pmp2ur
BaseName (.gbw .S,...)              ... 3

                    ********************************
                    * MULLIKEN POPULATION ANALYSIS *
                    ********************************

-----------------------
MULLIKEN ATOMIC CHARGES
-----------------------
   0 C :   -0.037134
   1 C :    0.755742
   2 H :    0.270036
   3 H :    0.280895
   4 C :   -0.221479
   5 H :    0.157213
   6 H :    0.109981
   7 N :   -0.671112
   8 C :   -0.153447
   9 H :    0.147769
  10 H :    0.123949
  11 C :   -0.317546
  12 H :    0.111276
  13 C :   -0.320614
  14 H :    0.114578
  15 H :    0.110754
  16 H :    0.135220
  17 H :    0.112232
  18 H :    0.112786
  19 O :   -0.621362
  20 H :    0.367650
  21 O :   -0.567389
Sum of atomic charges:    0.0000000

--------------------------------
MULLIKEN REDUCED ORBITAL CHARGES
--------------------------------
  0 C s       :     3.197475  s :     3.197475
      pz      :     0.799592  p :     2.753917
      px      :     1.013824
      py      :     0.940501
      dz2     :     0.019891  d :     0.085741
      dxz     :     0.016593
      dyz     :     0.019433
      dx2y2   :     0.018585
      dxy     :     0.011238
  1 C s       :     2.954425  s :     2.954425
      pz      :     0.789402  p :     2.133263
      px      :     0.634032
      py      :     0.709829
      dz2     :     0.025071  d :     0.156569
      dxz     :     0.044920
      dyz     :     0.019647
      dx2y2   :     0.037349
      dxy     :     0.029582
  2 H s       :     0.701893  s :     0.701893
      pz      :     0.008041  p :     0.028071
      px      :     0.005071
      py      :     0.014959
  3 H s       :     0.690989  s :     0.690989
      pz      :     0.007648  p :     0.028116
      px      :     0.014753
      py      :     0.005715
  4 C s       :     3.238810  s :     3.238810
      pz      :     1.062502  p :     2.918299
      px      :     0.983119
      py      :     0.872677
      dz2     :     0.011492  d :     0.064370
      dxz     :     0.014557
      dyz     :     0.012137
      dx2y2   :     0.015915
      dxy     :     0.010270
  5 H s       :     0.827858  s :     0.827858
      pz      :     0.003180  p :     0.014929
      px      :     0.009075
      py      :     0.002674
  6 H s       :     0.874629  s :     0.874629
      pz      :     0.006734  p :     0.015390
      px      :     0.003678
      py      :     0.004978
  7 N s       :     3.600355  s :     3.600355
      pz      :     1.526690  p :     4.014097
      px      :     1.150373
      py      :     1.337034
      dz2     :     0.010510  d :     0.056660
      dxz     :     0.015498
      dyz     :     0.006830
      dx2y2   :     0.017199
      dxy     :     0.006623
  8 C s       :     3.233127  s :     3.233127
      pz      :     0.985780  p :     2.848211
      px      :     0.915190
      py      :     0.947242
      dz2     :     0.010063  d :     0.072109
      dxz     :     0.017362
      dyz     :     0.016531
      dx2y2   :     0.012611
      dxy     :     0.015542
  9 H s       :     0.836961  s :     0.836961
      pz      :     0.008511  p :     0.015270
      px      :     0.002947
      py      :     0.003811
 10 H s       :     0.860750  s :     0.860750
      pz      :     0.004721  p :     0.015301
      px      :     0.007858
      py      :     0.002722
 11 C s       :     3.242996  s :     3.242996
      pz      :     1.004095  p :     3.016589
      px      :     0.971303
      py      :     1.041191
      dz2     :     0.008245  d :     0.057960
      dxz     :     0.014252
      dyz     :     0.013431
      dx2y2   :     0.008553
      dxy     :     0.013479
 12 H s       :     0.873348  s :     0.873348
      pz      :     0.007276  p :     0.015376
      px      :     0.003360
      py      :     0.004740
 13 C s       :     3.245026  s :     3.245026
      pz      :     1.027393  p :     3.017616
      px      :     1.031275
      py      :     0.958948
      dz2     :     0.006168  d :     0.057972
      dxz     :     0.015783
      dyz     :     0.014064
      dx2y2   :     0.009422
      dxy     :     0.012535
 14 H s       :     0.869987  s :     0.869987
      pz      :     0.004479  p :     0.015435
      px      :     0.006107
      py      :     0.004849
 15 H s       :     0.873710  s :     0.873710
      pz      :     0.003595  p :     0.015536
      px      :     0.004276
      py      :     0.007665
 16 H s       :     0.849272  s :     0.849272
      pz      :     0.007011  p :     0.015508
      px      :     0.003495
      py      :     0.005002
 17 H s       :     0.872351  s :     0.872351
      pz      :     0.005588  p :     0.015417
      px      :     0.006799
      py      :     0.003031
 18 H s       :     0.871798  s :     0.871798
      pz      :     0.004472  p :     0.015416
      px      :     0.006102
      py      :     0.004842
 19 O s       :     3.833223  s :     3.833223
      pz      :     1.415143  p :     4.739802
      px      :     1.583003
      py      :     1.741656
      dz2     :     0.008078  d :     0.048337
      dxz     :     0.011164
      dyz     :     0.009173
      dx2y2   :     0.011221
      dxy     :     0.008701
 20 H s       :     0.589750  s :     0.589750
      pz      :     0.021769  p :     0.042600
      px      :     0.007083
      py      :     0.013748
 21 O s       :     3.869330  s :     3.869330
      pz      :     1.700510  p :     4.643790
      px      :     1.477573
      py      :     1.465707
      dz2     :     0.008416  d :     0.054269
      dxz     :     0.011887
      dyz     :     0.006666
      dx2y2   :     0.013782
      dxy     :     0.013519


                     *******************************
                     * LOEWDIN POPULATION ANALYSIS *
                     *******************************

----------------------
LOEWDIN ATOMIC CHARGES
----------------------
   0 C :   -0.028462
   1 C :    0.205636
   2 H :    0.128073
   3 H :    0.134134
   4 C :   -0.101685
   5 H :    0.077543
   6 H :    0.061964
   7 N :   -0.270345
   8 C :   -0.074698
   9 H :    0.076142
  10 H :    0.064924
  11 C :   -0.177737
  12 H :    0.062406
  13 C :   -0.177212
  14 H :    0.064527
  15 H :    0.061324
  16 H :    0.064610
  17 H :    0.062205
  18 H :    0.063140
  19 O :   -0.199511
  20 H :    0.198232
  21 O :   -0.295212

-------------------------------
LOEWDIN REDUCED ORBITAL CHARGES
-------------------------------
  0 C s       :     2.869009  s :     2.869009
      pz      :     0.955633  p :     3.001299
      px      :     1.026851
      py      :     1.018815
      dz2     :     0.038461  d :     0.158154
      dxz     :     0.030143
      dyz     :     0.037412
      dx2y2   :     0.033196
      dxy     :     0.018942
  1 C s       :     2.850532  s :     2.850532
      pz      :     0.915981  p :     2.616034
      px      :     0.908945
      py      :     0.791108
      dz2     :     0.051827  d :     0.327799
      dxz     :     0.094922
      dyz     :     0.038411
      dx2y2   :     0.080725
      dxy     :     0.061914
  2 H s       :     0.786945  s :     0.786945
      pz      :     0.023794  p :     0.084982
      px      :     0.014006
      py      :     0.047182
  3 H s       :     0.780254  s :     0.780254
      pz      :     0.024187  p :     0.085612
      px      :     0.045186
      py      :     0.016239
  4 C s       :     2.894900  s :     2.894900
      pz      :     1.070253  p :     3.096960
      px      :     1.044801
      py      :     0.981906
      dz2     :     0.018509  d :     0.109825
      dxz     :     0.023776
      dyz     :     0.020436
      dx2y2   :     0.028816
      dxy     :     0.018288
  5 H s       :     0.877461  s :     0.877461
      pz      :     0.009499  p :     0.044995
      px      :     0.027059
      py      :     0.008438
  6 H s       :     0.893681  s :     0.893681
      pz      :     0.019485  p :     0.044355
      px      :     0.010438
      py      :     0.014431
  7 N s       :     3.187303  s :     3.187303
      pz      :     1.516062  p :     3.997717
      px      :     1.158359
      py      :     1.323296
      dz2     :     0.014771  d :     0.085325
      dxz     :     0.023133
      dyz     :     0.010362
      dx2y2   :     0.027322
      dxy     :     0.009736
  8 C s       :     2.872563  s :     2.872563
      pz      :     1.039064  p :     3.073436
      px      :     1.013385
      py      :     1.020987
      dz2     :     0.016363  d :     0.128700
      dxz     :     0.032234
      dyz     :     0.028882
      dx2y2   :     0.022534
      dxy     :     0.028686
  9 H s       :     0.878437  s :     0.878437
      pz      :     0.025279  p :     0.045420
      px      :     0.008806
      py      :     0.011335
 10 H s       :     0.890232  s :     0.890232
      pz      :     0.013713  p :     0.044844
      px      :     0.023403
      py      :     0.007728
 11 C s       :     2.906206  s :     2.906206
      pz      :     1.060406  p :     3.178261
      px      :     1.044245
      py      :     1.073609
      dz2     :     0.012628  d :     0.093271
      dxz     :     0.024365
      dyz     :     0.021175
      dx2y2   :     0.013378
      dxy     :     0.021724
 12 H s       :     0.893215  s :     0.893215
      pz      :     0.021388  p :     0.044379
      px      :     0.009333
      py      :     0.013659
 13 C s       :     2.907700  s :     2.907700
      pz      :     1.068919  p :     3.176225
      px      :     1.068705
      py      :     1.038602
      dz2     :     0.008576  d :     0.093287
      dxz     :     0.025031
      dyz     :     0.023421
      dx2y2   :     0.015364
      dxy     :     0.020895
 14 H s       :     0.891200  s :     0.891200
      pz      :     0.012648  p :     0.044272
      px      :     0.017812
      py      :     0.013812
 15 H s       :     0.893999  s :     0.893999
      pz      :     0.010022  p :     0.044677
      px      :     0.012135
      py      :     0.022521
 16 H s       :     0.890054  s :     0.890054
      pz      :     0.020747  p :     0.045336
      px      :     0.010187
      py      :     0.014402
 17 H s       :     0.893611  s :     0.893611
      pz      :     0.016138  p :     0.044184
      px      :     0.019745
      py      :     0.008301
 18 H s       :     0.892631  s :     0.892631
      pz      :     0.012773  p :     0.044229
      px      :     0.017565
      py      :     0.013891
 19 O s       :     3.457480  s :     3.457480
      pz      :     1.391378  p :     4.669311
      px      :     1.582547
      py      :     1.695386
      dz2     :     0.013556  d :     0.072720
      dxz     :     0.019281
      dyz     :     0.013516
      dx2y2   :     0.015869
      dxy     :     0.010499
 20 H s       :     0.679134  s :     0.679134
      pz      :     0.060569  p :     0.122634
      px      :     0.022017
      py      :     0.040048
 21 O s       :     3.545049  s :     3.545049
      pz      :     1.678372  p :     4.668822
      px      :     1.524962
      py      :     1.465488
      dz2     :     0.011944  d :     0.081341
      dxz     :     0.018218
      dyz     :     0.009512
      dx2y2   :     0.018792
      dxy     :     0.022876


                      *****************************
                      * MAYER POPULATION ANALYSIS *
                      *****************************

  NA   - Mulliken gross atomic population
  ZA   - Total nuclear charge
  QA   - Mulliken gross atomic charge
  VA   - Mayer's total valence
  BVA  - Mayer's bonded valence
  FA   - Mayer's free valence

  ATOM       NA         ZA         QA         VA         BVA        FA
  0 C      6.0371     6.0000    -0.0371     3.8297     3.5510     0.2787
  1 C      5.2443     6.0000     0.7557     3.7317     3.4411     0.2906
  2 H      0.7300     1.0000     0.2700     0.9132     0.8672     0.0460
  3 H      0.7191     1.0000     0.2809     0.9133     0.8676     0.0457
  4 C      6.2215     6.0000    -0.2215     3.8354     3.5618     0.2736
  5 H      0.8428     1.0000     0.1572     0.9499     0.9017     0.0481
  6 H      0.8900     1.0000     0.1100     0.9624     0.9150     0.0473
  7 N      7.6711     7.0000    -0.6711     2.9695     2.6434     0.3260
  8 C      6.1534     6.0000    -0.1534     3.8672     3.5846     0.2825
  9 H      0.8522     1.0000     0.1478     0.9609     0.9119     0.0490
 10 H      0.8761     1.0000     0.1239     0.9629     0.9128     0.0501
 11 C      6.3175     6.0000    -0.3175     3.9256     3.6742     0.2513
 12 H      0.8887     1.0000     0.1113     0.9628     0.9154     0.0474
 13 C      6.3206     6.0000    -0.3206     3.9297     3.6786     0.2511
 14 H      0.8854     1.0000     0.1146     0.9633     0.9161     0.0472
 15 H      0.8892     1.0000     0.1108     0.9629     0.9154     0.0475
 16 H      0.8648     1.0000     0.1352     0.9568     0.9068     0.0500
 17 H      0.8878     1.0000     0.1122     0.9629     0.9157     0.0472
 18 H      0.8872     1.0000     0.1128     0.9635     0.9162     0.0472
 19 O      8.6214     8.0000    -0.6214     2.0852     1.7278     0.3574
 20 H      0.6323     1.0000     0.3677     0.8800     0.8354     0.0446
 21 O      8.5674     8.0000    -0.5674     2.1596     1.7616     0.3980

  Mayer bond orders larger than 0.100000
B(  0-C ,  1-C ) :   0.8537 B(  0-C ,  4-C ) :   0.9061 B(  0-C ,  5-H ) :   0.9200 
B(  0-C ,  7-N ) :   0.9418 B(  1-C , 19-O ) :   0.9108 B(  1-C , 21-O ) :   1.7089 
B(  2-H ,  7-N ) :   0.8736 B(  3-H ,  7-N ) :   0.8611 B(  4-C ,  8-C ) :   0.9067 
B(  4-C ,  9-H ) :   0.9247 B(  4-C , 10-H ) :   0.9295 B(  6-H , 13-C ) :   0.9352 
B(  8-C , 11-C ) :   0.9217 B(  8-C , 13-C ) :   0.9256 B(  8-C , 16-H ) :   0.9252 
B( 11-C , 12-H ) :   0.9347 B( 11-C , 14-H ) :   0.9398 B( 11-C , 15-H ) :   0.9389 
B( 13-C , 17-H ) :   0.9397 B( 13-C , 18-H ) :   0.9399 B( 19-O , 20-H ) :   0.8052 



                *******************************************
                * RELAXED MP2 DENSITY POPULATION ANALYSIS *
                *******************************************

------------------------------------------------------------------------------
                           ORCA POPULATION ANALYSIS
------------------------------------------------------------------------------
Input electron density              ... 3.pmp2re
BaseName (.gbw .S,...)              ... 3

                    ********************************
                    * MULLIKEN POPULATION ANALYSIS *
                    ********************************

-----------------------
MULLIKEN ATOMIC CHARGES
-----------------------
   0 C :   -0.053064
   1 C :    0.563168
   2 H :    0.255778
   3 H :    0.262479
[...]
   5 H :    0.079121
   6 H :    0.066607
   7 N :   -0.258161
   8 C :   -0.076582
   9 H :    0.076881
  10 H :    0.069513
  11 C :   -0.195229
  12 H :    0.065590
  13 C :   -0.189462
  14 H :    0.068427
  15 H :    0.070539
  16 H :    0.062512
  17 H :    0.067663
  18 H :    0.067634
  19 O :   -0.175181
  20 H :    0.187479
  21 O :   -0.231318

-------------------------------
LOEWDIN REDUCED ORBITAL CHARGES
-------------------------------
  0 C s       :     2.872108  s :     2.872108
      pz      :     0.991895  p :     3.024603
      px      :     1.012699
      py      :     1.020008
      dz2     :     0.028375  d :     0.150955
      dxz     :     0.036401
      dyz     :     0.032887
      dx2y2   :     0.031402
      dxy     :     0.021890
  1 C s       :     2.863499  s :     2.863499
      pz      :     0.951744  p :     2.687879
      px      :     0.903129
      py      :     0.833006
      dz2     :     0.062937  d :     0.304717
      dxz     :     0.071444
      dyz     :     0.031137
      dx2y2   :     0.081271
      dxy     :     0.057927
  2 H s       :     0.789109  s :     0.789109
      pz      :     0.024424  p :     0.083557
      px      :     0.014779
      py      :     0.044354
  3 H s       :     0.785213  s :     0.785213
      pz      :     0.030353  p :     0.084301
      px      :     0.037006
      py      :     0.016942
  4 C s       :     2.896836  s :     2.896836
      pz      :     1.068282  p :     3.108521
      px      :     1.047950
      py      :     0.992288
      dz2     :     0.017500  d :     0.104736
      dxz     :     0.021136
      dyz     :     0.022572
      dx2y2   :     0.027579
      dxy     :     0.015949
  5 H s       :     0.875777  s :     0.875777
      pz      :     0.013488  p :     0.045102
      px      :     0.022916
      py      :     0.008698
  6 H s       :     0.889636  s :     0.889636
      pz      :     0.021936  p :     0.043757
      px      :     0.008312
      py      :     0.013510
  7 N s       :     3.202720  s :     3.202720
      pz      :     1.473795  p :     3.972224
      px      :     1.169111
      py      :     1.329318
      dz2     :     0.010770  d :     0.083217
      dxz     :     0.026455
      dyz     :     0.010807
      dx2y2   :     0.022894
      dxy     :     0.012291
  8 C s       :     2.871767  s :     2.871767
      pz      :     1.043707  p :     3.082039
      px      :     1.015727
      py      :     1.022606
      dz2     :     0.021204  d :     0.122775
      dxz     :     0.024648
      dyz     :     0.025122
      dx2y2   :     0.027348
      dxy     :     0.024453
  9 H s       :     0.878397  s :     0.878397
      pz      :     0.023727  p :     0.044722
      px      :     0.008671
      py      :     0.012324
 10 H s       :     0.886212  s :     0.886212
      pz      :     0.012363  p :     0.044276
      px      :     0.023964
      py      :     0.007948
 11 C s       :     2.908768  s :     2.908768
      pz      :     1.074314  p :     3.199539
      px      :     1.037643
      py      :     1.087582
      dz2     :     0.017971  d :     0.086922
      dxz     :     0.017930
      dyz     :     0.014711
      dx2y2   :     0.016588
      dxy     :     0.019722
 12 H s       :     0.890673  s :     0.890673
      pz      :     0.024223  p :     0.043737
      px      :     0.007976
      py      :     0.011539
 13 C s       :     2.910009  s :     2.910009
      pz      :     1.082313  p :     3.192167
      px      :     1.076226
      py      :     1.033628
      dz2     :     0.011532  d :     0.087286
      dxz     :     0.017663
      dyz     :     0.022187
      dx2y2   :     0.019935
      dxy     :     0.015968
 14 H s       :     0.887780  s :     0.887780
      pz      :     0.013456  p :     0.043793
      px      :     0.016044
      py      :     0.014294
 15 H s       :     0.884506  s :     0.884506
      pz      :     0.008308  p :     0.044955
      px      :     0.011825
      py      :     0.024822
 16 H s       :     0.893331  s :     0.893331
      pz      :     0.022899  p :     0.044157
      px      :     0.008520
      py      :     0.012738
 17 H s       :     0.888573  s :     0.888573
      pz      :     0.012191  p :     0.043764
      px      :     0.023666
      py      :     0.007906
 18 H s       :     0.888602  s :     0.888602
      pz      :     0.014795  p :     0.043764
      px      :     0.015629
      py      :     0.013339
 19 O s       :     3.483732  s :     3.483732
      pz      :     1.451825  p :     4.619147
      px      :     1.498252
      py      :     1.669070
      dz2     :     0.015185  d :     0.072302
      dxz     :     0.014067
      dyz     :     0.012012
      dx2y2   :     0.018979
      dxy     :     0.012059
 20 H s       :     0.692452  s :     0.692452
      pz      :     0.061348  p :     0.120069
      px      :     0.020548
      py      :     0.038173
 21 O s       :     3.561434  s :     3.561434
      pz      :     1.572080  p :     4.591123
      px      :     1.580407
      py      :     1.438636
      dz2     :     0.012994  d :     0.078762
      dxz     :     0.021607
      dyz     :     0.011691
      dx2y2   :     0.015266
      dxy     :     0.017203


                      *****************************
                      * MAYER POPULATION ANALYSIS *
                      *****************************

  NA   - Mulliken gross atomic population
  ZA   - Total nuclear charge
  QA   - Mulliken gross atomic charge
  VA   - Mayer's total valence
  BVA  - Mayer's bonded valence
  FA   - Mayer's free valence

  ATOM       NA         ZA         QA         VA         BVA        FA
  0 C      6.0590     6.0000    -0.0590     3.9044     3.6295     0.2748
  1 C      5.4321     6.0000     0.5679     3.9260     3.6470     0.2790
  2 H      0.7455     1.0000     0.2545     0.9185     0.8722     0.0464
  3 H      0.7372     1.0000     0.2628     0.9267     0.8809     0.0458
  4 C      6.1861     6.0000    -0.1861     3.9040     3.6345     0.2695
  5 H      0.8581     1.0000     0.1419     0.9552     0.9077     0.0475
  6 H      0.8918     1.0000     0.1082     0.9653     0.9179     0.0475
  7 N      7.6071     7.0000    -0.6071     3.0294     2.7063     0.3231
  8 C      6.1116     6.0000    -0.1116     3.9461     3.6671     0.2789
  9 H      0.8699     1.0000     0.1301     0.9640     0.9148     0.0492
 10 H      0.8871     1.0000     0.1129     0.9658     0.9156     0.0502
 11 C      6.3282     6.0000    -0.3282     3.9489     3.6982     0.2507
 12 H      0.8944     1.0000     0.1056     0.9654     0.9176     0.0478
 13 C      6.3215     6.0000    -0.3215     3.9566     3.7068     0.2498
 14 H      0.8916     1.0000     0.1084     0.9658     0.9182     0.0476
 15 H      0.8775     1.0000     0.1225     0.9677     0.9206     0.0470
 16 H      0.8937     1.0000     0.1063     0.9612     0.9105     0.0507
 17 H      0.8898     1.0000     0.1102     0.9648     0.9176     0.0472
 18 H      0.8909     1.0000     0.1091     0.9651     0.9178     0.0473
 19 O      8.5228     8.0000    -0.5228     2.2065     1.8526     0.3539
 20 H      0.6594     1.0000     0.3406     0.9036     0.8593     0.0442
 21 O      8.4444     8.0000    -0.4444     2.3147     1.9249     0.3898

  Mayer bond orders larger than 0.100000
B(  0-C ,  1-C ) :   0.8604 B(  0-C ,  4-C ) :   0.9203 B(  0-C ,  5-H ) :   0.9085 
B(  0-C ,  7-N ) :   0.9665 B(  1-C , 19-O ) :   0.9764 B(  1-C , 21-O ) :   1.8044 
B(  2-H ,  7-N ) :   0.8742 B(  3-H ,  7-N ) :   0.8615 B(  4-C ,  8-C ) :   0.9299 
B(  4-C ,  9-H ) :   0.9148 B(  4-C , 10-H ) :   0.9173 B(  6-H , 13-C ) :   0.9315 
B(  8-C , 11-C ) :   0.9379 B(  8-C , 13-C ) :   0.9399 B(  8-C , 16-H ) :   0.9170 
B( 11-C , 12-H ) :   0.9305 B( 11-C , 14-H ) :   0.9336 B( 11-C , 15-H ) :   0.9277 
B( 13-C , 17-H ) :   0.9336 B( 13-C , 18-H ) :   0.9336 B( 19-O , 20-H ) :   0.8123 



----------------------------------
MP2 DERIVATIVE INTEGRAL GENERATION
----------------------------------

Input SCF Electron Density              ... 3.scfp
Input Correlated Electron Density       ... 3.pmp2re
Input Energy Weighted Density           ... 3.wmp2.tmp
Input Wavefunction Amplitudes           ... 3.mp2tsaa.tmp

Nuclear repulsion gradient              ... done (  0.0 sec)
HCore & Overlap gradient  (SHARK)       ... done (  0.1 sec)
Analytic two-electron gradient terms    ... 
  Batch handling in the gradient evaluation:
  General contraction                   ... not used
  Memory available                      ... 4081.7 MB
  Memory per occupied orbital in Q2     ...    7.5 MB
  Memory per occupied orbital in Q3     ...    0.0 MB
  Total memory requirement per |i>      ...    7.6 MB
  Number of orbitals treated per batch  ...     27
  Number of batches to be done          ...      1
done ( 21.5 sec)

---------------------------------------
MP2 TOTAL ENERGY:     -440.365749642 Eh
---------------------------------------

The final MP2 gradient
  0:   0.00002250  -0.00002550  -0.00000076
  1:  -0.00002069   0.00004328  -0.00001234
  2:   0.00000079   0.00000665   0.00000573
  3:   0.00000339   0.00001174   0.00000440
  4:   0.00000216   0.00002448   0.00002152
  5:  -0.00000251   0.00000985   0.00000407
  6:  -0.00001004  -0.00000163  -0.00000109
  7:  -0.00000786  -0.00002298  -0.00001791
  8:   0.00001467  -0.00004029   0.00000484
  9:  -0.00000219   0.00000281  -0.00000578
 10:  -0.00000000  -0.00000417  -0.00000210
 11:  -0.00004608   0.00000557   0.00001729
 12:   0.00000376   0.00000414  -0.00000262
 13:   0.00001238   0.00002217   0.00001852
 14:   0.00001012  -0.00001434  -0.00001191
 15:   0.00002280   0.00000500  -0.00000352
 16:  -0.00001199   0.00001132  -0.00000297
 17:   0.00000242  -0.00000273  -0.00001105
 18:  -0.00000484   0.00000049  -0.00000717
 19:  -0.00000891  -0.00002438  -0.00000408
 20:   0.00000043   0.00000057   0.00000468
 21:   0.00001969  -0.00001204   0.00000226

-----------------------------------
NORM OF THE MP2 GRADIENT:  0.000119
-----------------------------------

Maximum memory used throughout the entire MP2-calculation: 780.1 MB

-------------------------   --------------------
FINAL SINGLE POINT ENERGY      -440.365749642098
-------------------------   --------------------

                                *** OPTIMIZATION RUN DONE ***


------------------------------------------------------------------------------
                              ORCA PROPERTY CALCULATIONS
------------------------------------------------------------------------------

GBWName                                 ... 3.gbw
Number of atoms                         ...     22
Number of basis functions               ...    191
Max core memory                         ...   4096 MB

Electric properties:
Dipole moment                           ... YES
Quadrupole moment                       ...  NO
Static polarizability (Dipole/Dipole)   ...  NO
Static polarizability (Dipole/Quad.)    ...  NO
Static polarizability (Quad./Quad.)     ...  NO
Static polarizability (Velocity)        ...  NO
Static hyperpolarizability              ...  NO

Atomic electric properties:
Dipole moment                           ...  NO
Quadrupole moment                       ...  NO
Static polarizability                   ...  NO

Choice of electric origin               ... Center of mass
Position of electric origin             ...   -17.815620    10.800117    -3.281899

General magnetic properties:
Magnetizability                         ...  NO

EPR properties:
g-Tensor (aka g-matrix)                 ...  NO
Zero-Field splitting spin-orbit         ...  NO
Zero-field splitting spin-spin          ...  NO
Hyperfine couplings                     ...  NO (   0 nuclei)
Quadrupole couplings                    ...  NO (   0 nuclei)
Contact density                         ...  NO (   0 nuclei)

NMR properties:
Chemical shifts                         ...  NO (   0 nuclei)
Spin-rotation constants                 ...  NO (   0 nuclei)
Spin-spin couplings                     ...  NO (   0 nuclei,    0 pairs)

Choice of magnetic origin               ... GIAO
Position of magnetic origin             ...     0.000000     0.000000     0.000000

Properties with geometric perturbations:
SCF Hessian                             ...  NO
IR spectrum                             ...  NO
VCD spectrum                            ...  NO
X-ray spectroscopy properties:
SCF XES/XAS/RIXS spectra                ...  NO

SCF SOC stabilization energy            ...  NO
Diagonal Born-Oppenheimer correction    ...  NO

-------------
DIPOLE MOMENT
-------------

Method             : SCF
Type of density    : Electron Density
Multiplicity       :   1
Irrep              :   0
Energy             :  -438.9918601850933442 Eh
Basis              : AO
                                X                 Y                 Z
Electronic contribution:      1.610423539      11.291565803       2.459587549
Nuclear contribution   :     -2.211126036     -11.277638476      -2.325765316
                        -----------------------------------------
Total Dipole Moment    :     -0.600702498       0.013927327       0.133822233
                        -----------------------------------------
Magnitude (a.u.)       :      0.615585779
Magnitude (Debye)      :      1.564694701



--------------------
Rotational spectrum 
--------------------
 
Rotational constants in cm-1:             0.073642             0.035314             0.030953 
Rotational constants in MHz :          2207.738580          1058.692471           927.959075 

Dipole components along the rotational axes: 
x,y,z [a.u.] :    -0.144040     0.527571    -0.282607 
x,y,z [Debye]:    -0.366122     1.340979    -0.718331 

 

-------------
DIPOLE MOMENT
-------------

Method             : MP2
Type of density    : Electron Density
Multiplicity       :   1
Level              : Unrelaxed density
Irrep              :   0
Energy             :     0.0000000000000000 Eh
Basis              : AO
                                X                 Y                 Z
Electronic contribution:      1.633059435      11.307062044       2.478749238
Nuclear contribution   :     -2.211126036     -11.277638476      -2.325765316
                        -----------------------------------------
Total Dipole Moment    :     -0.578066601       0.029423568       0.152983923
                        -----------------------------------------
Magnitude (a.u.)       :      0.598690924
Magnitude (Debye)      :      1.521751393



--------------------
Rotational spectrum 
--------------------
 
Rotational constants in cm-1:             0.073642             0.035314             0.030953 
Rotational constants in MHz :          2207.738580          1058.692471           927.959075 

Dipole components along the rotational axes: 
x,y,z [a.u.] :    -0.123770     0.526858    -0.255993 
x,y,z [Debye]:    -0.314599     1.339166    -0.650684 

 

-------------
DIPOLE MOMENT
-------------

Method             : MP2
Type of density    : Electron Density
Multiplicity       :   1
Level              : Relaxed density
Irrep              :   0
Energy             :     0.0000000000000000 Eh
Basis              : AO
                                X                 Y                 Z
Electronic contribution:      1.705014334      11.397110368       2.560244209
Nuclear contribution   :     -2.211126036     -11.277638476      -2.325765316
                        -----------------------------------------
Total Dipole Moment    :     -0.506111702       0.119471892       0.234478893
                        -----------------------------------------
Magnitude (a.u.)       :      0.570441004
Magnitude (Debye)      :      1.449945803



--------------------
Rotational spectrum 
--------------------
 
Rotational constants in cm-1:             0.073642             0.035314             0.030953 
Rotational constants in MHz :          2207.738580          1058.692471           927.959075 

Dipole components along the rotational axes: 
x,y,z [a.u.] :    -0.020467     0.546620    -0.161837 
x,y,z [Debye]:    -0.052023     1.389396    -0.411356 

 

Dipole moment calculation done in   0.0 sec 

Maximum memory used throughout the entire PROP-calculation: 10.5 MB

--------------------------------
SUGGESTED CITATIONS FOR THIS RUN
--------------------------------

Below you find a list of papers that are relevant to this ORCA run
We neither can nor want to force you to cite these papers, but we appreciate if you do
You receive ORCA, which is the product of decades of hard work by many enthusiastic individuals, for free
The only thing we kindly ask in return is that you cite our papers,
We deeply appreciate it, if you show your appreciation for ORCA by not just citing the generic ORCA reference.

Please note that relegating all ORCA citations to the supporting information does *not* help us.
SI sections are not indexed - citations you put there will not count into any citation statistics
But we need these citations in order to attract the funding resources that allow us to do what we are doing

Therefore, if you are a happy ORCA user, please consider citing a few of the papers listed below in the main body of your paper

In addition to the list printed below, the program has created the file 3.bibtex that contains the list in bibtex format
You can import this file easily into all common literature databanks and citation aid programs


List of essential papers. We consider these as the minimum necessary citations

  1. Neese, F.
     Software update: the ORCA program system, version 6.0
     WIRES Comput. Molec. Sci. 2025 15(1), e70019
     doi.org/10.1002/wcms.7019

List of papers to cite with high priority. The work reported in these papers was absolutely
necessary for this run to complete.
Our perspective: the developers of density functionals and basis sets usually get cited in chemistry papers
Good! But without the algorithms to do something with them, the functionals or basis sets would not do anything.
Hence, in our opinion, the algorithm design and method developments papers are equally worthy of getting cited

  1. Neese, F.
     The SHARK Integral Generation and Digestion System
     J. Comp. Chem. 2022 44(3), 381
     doi.org/10.1002/jcc.26942

List of suggested additional citations. These are papers that are important in the 'surrounding' of 
of this run, or papers that preceded the highly important papers. If you like your results we are grateful for a citation.

  1. Neese, F.
     The ORCA program system
     WIRES Comput. Molec. Sci. 2012 2(1), 73-78
     doi.org/10.1002/wcms.81
  2. Neese, F.
     Software update: the ORCA program system, version 4.0
     WIRES Comput. Molec. Sci. 2018 8(1), 1-6
     doi.org/10.1002/wcms.1327
  3. Neese, F.; Wennmohs, F.; Becker, U.; Riplinger, C.
     The ORCA quantum chemistry program package
     J. Chem. Phys. 2020 152(22), 224108
     doi.org/10.1063/5.0004608
  4. Neese, F.
     Software update: The ORCA program system—Version 5.0
     WIRES Comput. Molec. Sci. 2022 12(1), e1606
     doi.org/10.1002/wcms.1606

List of optional additional citations

  1. Neese, F.
     Approximate second-order SCF convergence for spin unrestricted wavefunctions
     Chem. Phys. Lett. 2000 325(1-3), 93-98
     doi.org/10.1016/s0009-2614(00)00662-x

Timings for individual modules:

Sum of individual times          ...      901.609 sec (=  15.027 min)
Startup calculation              ...        5.069 sec (=   0.084 min)   0.6 %
SCF iterations                   ...      182.359 sec (=   3.039 min)  20.2 %
Property calculations            ...        0.046 sec (=   0.001 min)   0.0 %
MP2 module                       ...      714.116 sec (=  11.902 min)  79.2 %
Geometry relaxation              ...        0.018 sec (=   0.000 min)   0.0 %
                             ****ORCA TERMINATED NORMALLY****
TOTAL RUN TIME: 0 days 0 hours 15 minutes 1 seconds 848 msec
