
                                 *****************
                                 * O   R   C   A *
                                 *****************

                                            #,                                       
                                            ###                                      
                                            ####                                     
                                            #####                                    
                                            ######                                   
                                           ########,                                 
                                     ,,################,,,,,                         
                               ,,#################################,,                 
                          ,,##########################################,,             
                       ,#########################################, ''#####,          
                    ,#############################################,,   '####,        
                  ,##################################################,,,,####,       
                ,###########''''           ''''###############################       
              ,#####''   ,,,,##########,,,,          '''####'''          '####       
            ,##' ,,,,###########################,,,                        '##       
           ' ,,###''''                  '''############,,,                           
         ,,##''                                '''############,,,,        ,,,,,,###''
      ,#''                                            '''#######################'''  
     '                                                          ''''####''''         
             ,#######,   #######,   ,#######,      ##                                
            ,#'     '#,  ##    ##  ,#'     '#,    #''#        ,####,    ,#,          
            ##       ##  ##   ,#'  ##            #'  '#       #'       ,# #          
            ##       ##  #######   ##           ,######,      #####,      #          
            '#,     ,#'  ##    ##  '#,     ,#' ,#      #,     #,   #      #          
             '#######'   ##     ##  '#######'  #'      '#     '####' #    #          



                #########################################################
                #                        -***-                          #
                #          Department of theory and spectroscopy        #
                #                                                       #
                #                      Frank Neese                      #
                #                                                       #
                #     Directorship, Architecture, Infrastructure        #
                #                    SHARK, DRIVERS                     #
                #        Core code/Algorithms in most modules           #
                #                                                       #
                #        Max Planck Institute fuer Kohlenforschung      #
                #                Kaiser Wilhelm Platz 1                 #
                #                 D-45470 Muelheim/Ruhr                 #
                #                      Germany                          #
                #                                                       #
                #                  All rights reserved                  #
                #                        -***-                          #
                #########################################################


                         Program Version 6.1.0  -  RELEASE   -
                                (GIT: $679e74b$)
                          ($2025-06-10 18:02:51 +0200$)


 With contributions from (in alphabetic order):
[Max-Planck-Institut fuer Kohlenforschung]                               
  Daniel Aravena         : Magnetic Suceptibility                        
  Michael Atanasov       : Ab Initio Ligand Field Theory (pilot matlab implementation)
  Alexander A. Auer      : GIAO ZORA, VPT2 properties, NMR spectrum      
  Ute Becker             : All parallelization in ORCA, NUMFREQ, NUMCALC 
  Giovanni Bistoni       : ED, misc. LED, open-shell LED, HFLD           
  Dmytro Bykov           : pre 5.0 version of the SCF Hessian            
  Marcos Casanova-Páez   : Triplet and SCS-CIS(D). UHF-(DLPNO)-IP/EA/STEOM-CCSD. UHF-CVS-IP/STEOM-CCSD   
  Vijay G. Chilkuri      : MRCI spin determinant printing, contributions to CSF-ICE 
  Pauline Colinet        : FMM embedding                                 
  Dipayan Datta          : RHF DLPNO-CCSD density                        
  Achintya Kumar Dutta   : EOM-CC, STEOM-CC                              
  Nicolas Foglia         : Exact transition moments, OPA infrastructure, MCD improvements    
  Dmitry Ganyushin       : Spin-Orbit,Spin-Spin,Magnetic field MRCI      
  Miquel Garcia-Rates    : C-PCM and meta-GGA Hessian, CCSD/C-PCM, Gaussian charge scheme 
  Tiago L. C. Gouveia    : GS-ROHF, GS-ROCIS                             
  Yang Guo               : DLPNO-NEVPT2, F12-NEVPT2, CIM, IAO-localization        
  Andreas Hansen         : Spin unrestricted coupled pair/coupled cluster methods 
  Ingolf Harden          : AUTO-CI MPn and infrastructure                
  Benjamin Helmich-Paris : MC-RPA, TRAH-(SCF,CASSCF), AVAS, COSX integrals, SCF dyn. polar., MC-PDFT, srDFT 
  Lee Huntington         : MR-EOM, pCC                                   
  Robert Izsak           : Overlap fitted RIJCOSX, COSX-SCS-MP3, EOM     
  Riya Kayal             : Wick's Theorem for AUTO-CI, AUTO-CI UHF-CCSDT 
  Emily Kempfer          : AUTO-CI RHF CISDT and CCSDT, approximate NEVPT4
  Christian Kollmar      : KDIIS, OOCD, Brueckner-CCSD(T), CCSD density, CASPT2, CASPT2-K, improved NEVPT2 
  Axel Koslowski         : Symmetry handling                             
  Simone Kossmann        : meta-GGA functionals, TD-DFT gradient, OOMP2, (MP2 Hessian; deprecated post 5.0) 
  Lucas Lang             : DCDCAS, Hyperfine gauge corrections, ICE-SOC+SSC
  Marvin Lechner         : AUTO-CI (C++ implementation), FIC-MRCC        
  Spencer Leger          : CASSCF response                               
  Dagmar Lenk            : GEPOL surface, SMD, ORCA-2-JSON               
  Dimitrios Liakos       : Extrapolation schemes; Compound Job, Property file
  Dimitrios Manganas     : Further ROCIS development; embedding schemes. LFT, Crystal Embedding 
  Dimitrios Pantazis     : SARC Basis sets                               
  Anastasios Papadopoulos: AUTO-CI, single reference methods and gradients 
  Taras Petrenko         : pre 6.0 DFT Hessian and TD-DFT gradient,  ECA, NRVS 
  Petra Pikulova         : Analytic Raman intensities                    
  Peter Pinski           : DLPNO-MP2, DLPNO-MP2 Gradient                 
  Shashank Vittal Rao    : ES-AILFT, MagRelax                            
  Christoph Reimann      : Effective Core Potentials                     
  Marius Retegan         : Local ZFS, SOC                                
  Christoph Riplinger    : Optimizer, TS searches, QM/MM, DLPNO-CCSD(T), (RO)-DLPNO pert. Triples 
  Michael Roemelt        : Original ROCIS implementation, recursive CI coupling coefficients
  Masaaki Saitow         : Open-shell DLPNO-CCSD energy and density      
  Barbara Sandhoefer     : DKH picture change effects                    
  Yorick L. A. Schmerwitz: GMF and freeze-and-release deltaSCF, NEB S-IDPP initial path                    
  Kantharuban Sivalingam : CASSCF convergence/infrastructure, NEVPT2, NEVPT3, NEVPT4(SD), FIC-MRCI and CEPA variants
  Bernardo de Souza      : ESD, SOC TD-DFT                               
  Georgi L. Stoychev     : AutoAux, RI-MP2 NMR, DLPNO-MP2 response, X2C  
  Van Anh Tran           : RI-MP2 g-tensors                              
  Willem Van den Heuvel  : Paramagnetic NMR                              
  Zikuan Wang            : NOTCH, Electric field optimization            
  Frank Wennmohs         : Technical directorship and infrastructure     
  Hang Xu                : AUTO-CI-Response properties                   
                                                                         
[FACCTs GmbH]                                                            
  Markus Bursch, Nicolas Foglia, Miquel Garcia-Rates, Ingolf Harden, Hagen Neugebauer, Anastasios Papadopoulos, 
  Christoph Riplinger, Bernardo de Souza, Georgi L. Stoychev                                                    
                                                                 
  APM, various basis sets, CI-OPT, improved COSX, DLPNO-Multilevel,           
  DOCKER, DRACO, updates on ESD, Fragmentator, GOAT, IRC, LR-CPCM, L-BFGS, MBIS, meta-GGA TD-DFT gradient, ML-optimized integration grids, 
  MM, NACMEs, nearIR, NEB, NEB-TS, NL-DFT gradient (VV10), 2- and 3-layer-ONIOM, interface openCOSMO-RS, QMMM,   
  Crystal-QMMM, RESP, rigid body optimization, SF, symmetry and pop. for TD-DFT, various functionals, SOLVATOR                                   
                                                                         
[Other institutions]                                                     
  V. Asgeirsson          : NEB                                           
  Christoph Bannwarth    : sTDA-DFT, sTD-DFT, PBEh-3c, B97-3c, D3        
  Giovanni Bistoni       : ETS/NOCV, ADLD/ADEX, COVALED                  
  Martin Brehm           : Molecular dynamics                            
  Ronald Cardenas        : ETS/NOCV                                      
  Martina Colucci        : COVALED                                       
  Sebastian Ehlert       : rSCAN, r2SCAN, r2SCAN-3c, D4, dhf basis sets  
  Marvin Friede          : D4 for Fr, Ra, Ac-Lr                          
  Lars Goerigk           : TD-DFT with DH, B97 family of functionals     
  Stefan Grimme          : VdW corrections, initial TS optimization, DFT functionals, gCP, sTDA/sTD-DF 
  Waldemar Hujo          : DFT-NL                                        
  H. Jonsson             : NEB                                           
  Holger Kruse           : gCP                                           
  Marcel Mueller         : wB97X-3c, vDZP basis set                      
  Hagen Neugebauer       : wr2SCAN, Native XTB                           
  Gianluca Regni         : ADLD/ADEX                                     
  Tobias Risthaus        : pre 6.0 range-separated hybrid DFT and stability analysis
  Lukas Wittmann         : regularized MP2, r2SCAN double-hybrids, wr2SCAN        
                                                                         
We gratefully acknowledge several colleagues who have allowed us to      
interface, adapt or use parts of their codes:                            
  Ed Valeev, F. Pavosevic, A. Kumar             : LibInt (2-el integral package), F12 methods 
  Garnet Chan, S. Sharma, J. Yang, R. Olivares  : DMRG                   
  Ulf Ekstrom                                   : XCFun DFT Library      
  Mihaly Kallay                                 : mrcc  (arbitrary order and MRCC methods)
  Frank Weinhold                                : gennbo (NPA and NBO analysis)           
  Simon Mueller                                 : openCOSMO-RS                            
  Christopher J. Cramer and Donald G. Truhlar   : smd solvation model                     
  S Lehtola, MJT Oliveira, MAL Marques          : LibXC Library                           
  Liviu Ungur et al                             : ANISO software                          


 Your calculation uses the libint2 library for the computation of 2-el integrals
 For citations please refer to: http://libint.valeyev.net

 Your ORCA version has been built with support for libXC version: 7.0.0
 For citations please refer to: https://libxc.gitlab.io

 This ORCA versions uses:
   CBLAS   interface :  Fast vector & matrix operations
   LAPACKE interface :  Fast linear algebra routines
   SCALAPACK package :  Parallel linear algebra routines
   Shared memory     :  Shared parallel matrices
   BLAS/LAPACK       :  OpenBLAS 0.3.29  USE64BITINT DYNAMIC_ARCH NO_AFFINITY Haswell SINGLE_THREADED
        Core in use  :  Haswell
   Copyright (c) 2011-2014, The OpenBLAS Project


  ***********************************
  * Starting time: Sun Aug 31 17:34:33 2025
  * Host name:     chemlab03
  * Process ID:    94153
  * Working dir.:  /home/vivek/mm-project/vivek/xtb-goat/MP2-opt/e/3
  ***********************************



***************************************
The coordinates will be read from file: /home/vivek/mm-project/vivek/xtb-goat/xtb-goat/e/E_CONF/3.xyz
***************************************


================================================================================

----- Orbital basis set information -----
Your calculation utilizes the basis: 6-31G**
   H-He, Li-Ne : W. J. Hehre, R. Ditchfield and J.A. Pople, J. Chem. Phys. 56, 2257 (1972).
                 Note: He and Ne are unpublished basis sets taken from the Gaussian program.
                 Note: Li and B from J. D. Dill and J. A. Pople, J. Chem. Phys. 62, 2921 (1975).
   Na - Ar     : M. M. Francl, W. J. Pietro, W. J. Hehre, J. S. Binkley, M. S. Gordon, 
                 D. J. DeFrees and J. A. Pople, J. Chem. Phys. 77, 3654 (1982).
   K - Zn      : V. A. Rassolov, J. A. Pople, M. A. Ratner, and T. L. Windus, J. Chem. Phys. 109, 1223 (1998).

================================================================================
                                        WARNINGS
                       Please study these warnings very carefully!
================================================================================


WARNING: The frozen-core approximation for MP2-gradient calculations is turned on by default.

WARNING: Geometry Optimization
  ===> : Switching off AutoStart
         For restart on a previous wavefunction, please use MOREAD

WARNING: Post HF methods need fully converged wavefunctions
  ===> : Setting SCFConvForced true
         You can overwrite this default with %scf ConvForced false 


================================================================================
                                       INPUT FILE
================================================================================
NAME = 3.inp
|  1> ! MP2 6-31G** opt
|  2> 
|  3> * xyzfile 0 1 /home/vivek/mm-project/vivek/xtb-goat/xtb-goat/e/E_CONF/3.xyz
|  4> 
|  5>                          ****END OF INPUT****
================================================================================

                       *****************************
                       * Geometry Optimization Run *
                       *****************************

Geometry optimization settings:
Update method            Update   .... BFGS
Choice of coordinates    CoordSys .... (2022) Redundant Internals
Initial Hessian          InHess   .... Almloef's Model
Max. no of cycles        MaxIter  .... 57

Convergence Tolerances:
Energy Change            TolE     ....  5.0000e-06 Eh
Max. Gradient            TolMAXG  ....  3.0000e-04 Eh/bohr
RMS Gradient             TolRMSG  ....  1.0000e-04 Eh/bohr
Max. Displacement        TolMAXD  ....  4.0000e-03 bohr
RMS Displacement         TolRMSD  ....  2.0000e-03 bohr
Strict Convergence                .... False

------------------------------------------------------------------------------
                        ORCA OPTIMIZATION COORDINATE SETUP
------------------------------------------------------------------------------

The optimization will be done in redundant internal coordinates (2022)
Making redundant internal coordinates   ...  (2022 redundants) done
Evaluating the initial hessian          ...  (Almloef) done
Evaluating the coordinates              ...  done
Calculating the B-matrix                .... done
Calculating the G-matrix                .... done
The number of degrees of freedom        ....   78

    -----------------------------------------------------------------
                    Redundant Internal Coordinates


    -----------------------------------------------------------------
         Definition                    Initial Value    Approx d2E/dq
    -----------------------------------------------------------------
      1. B(C   1,C   0)                  1.5117         0.399559   
      2. B(O   4,C   0)                  1.3364         0.681294   
      3. B(C   5,C   1)                  1.5277         0.376733   
      4. B(H   6,C   1)                  1.0916         0.357926   
      5. B(H   7,C   1)                  1.0887         0.361861   
      6. B(C   8,C   5)                  1.5361         0.365337   
      7. B(H   9,C   5)                  1.0919         0.357549   
      8. B(H  10,C   5)                  1.0898         0.360375   
      9. B(C  11,C   8)                  1.5258         0.379383   
     10. B(O  12,C  11)                  1.2016         1.118194   
     11. B(N  13,C   8)                  1.4463         0.455038   
     12. B(N  13,H   3)                  1.0157         0.423751   
     13. B(N  13,H   2)                  1.0143         0.426001   
     14. B(H  14,O   4)                  0.9697         0.501768   
     15. B(O  15,C  11)                  1.3372         0.679283   
     16. B(H  16,C   8)                  1.0971         0.350797   
     17. B(O  17,C   0)                  1.2022         1.115614   
     18. B(H  18,O  15)                  0.9710         0.499304   
     19. A(O   4,C   0,O  17)          122.8197         0.485037   
     20. A(C   1,C   0,O  17)          125.0976         0.442891   
     21. A(C   1,C   0,O   4)          111.9772         0.405514   
     22. A(C   0,C   1,H   6)          107.6737         0.327600   
     23. A(C   0,C   1,H   7)          108.9250         0.328192   
     24. A(C   5,C   1,H   7)          111.2405         0.325028   
     25. A(H   6,C   1,H   7)          109.3503         0.290786   
     26. A(C   0,C   1,C   5)          110.3400         0.368090   
     27. A(C   5,C   1,H   6)          109.2360         0.324445   
     28. A(C   0,O   4,H  14)          110.2070         0.373874   
     29. A(C   8,C   5,H  10)          109.3053         0.323175   
     30. A(C   1,C   5,H  10)          110.3528         0.324808   
     31. A(C   8,C   5,H   9)          109.1877         0.322758   
     32. A(H   9,C   5,H  10)          109.1021         0.290550   
     33. A(C   1,C   5,H   9)          108.6694         0.324389   
     34. A(C   1,C   5,C   8)          110.1983         0.362491   
     35. A(C   5,C   8,C  11)          109.3213         0.362925   
     36. A(N  13,C   8,H  16)          108.4137         0.331597   
     37. A(C  11,C   8,H  16)          107.6405         0.323747   
     38. A(C   5,C   8,H  16)          108.8351         0.321751   
     39. A(C  11,C   8,N  13)          112.7853         0.374513   
     40. A(C   5,C   8,N  13)          109.7502         0.372085   
     41. A(C   8,C  11,O  12)          124.4735         0.438948   
     42. A(O  12,C  11,O  15)          123.0010         0.484979   
     43. A(C   8,C  11,O  15)          112.5251         0.401614   
     44. A(H   3,N  13,C   8)          109.9027         0.339246   
     45. A(H   2,N  13,C   8)          110.6836         0.339546   
     46. A(H   2,N  13,H   3)          107.4125         0.301493   
     47. A(C  11,O  15,H  18)          110.4882         0.373366   
     48. D(C   5,C   1,C   0,O  17)    -53.7066         0.011849   
     49. D(H   6,C   1,C   0,O  17)     65.4300         0.011849   
     50. D(H   6,C   1,C   0,O   4)   -110.9105         0.011849   
     51. D(H   7,C   1,C   0,O   4)      7.5712         0.011849   
     52. D(C   5,C   1,C   0,O   4)    129.9528         0.011849   
     53. D(H  14,O   4,C   0,O  17)      4.6986         0.034584   
     54. D(H  14,O   4,C   0,C   1)   -178.8640         0.034584   
     55. D(H   9,C   5,C   1,H   7)    173.4734         0.011322   
     56. D(H   9,C   5,C   1,H   6)    -65.7199         0.011322   
     57. D(H   9,C   5,C   1,C   0)     52.4628         0.011322   
     58. D(C   8,C   5,C   1,H   7)     53.8724         0.011322   
     59. D(C   8,C   5,C   1,H   6)    174.6790         0.011322   
     60. D(C   8,C   5,C   1,C   0)    -67.1382         0.011322   
     61. D(C  11,C   8,C   5,H   9)     61.3689         0.010687   
     62. D(C  11,C   8,C   5,C   1)   -179.3450         0.010687   
     63. D(N  13,C   8,C   5,H  10)    177.9015         0.010687   
     64. D(N  13,C   8,C   5,H   9)    -62.8204         0.010687   
     65. D(N  13,C   8,C   5,C   1)     56.4658         0.010687   
     66. D(C  11,C   8,C   5,H  10)    -57.9092         0.010687   
     67. D(O  15,C  11,C   8,N  13)   -173.8025         0.010742   
     68. D(O  15,C  11,C   8,C   5)     63.8077         0.010742   
     69. D(O  12,C  11,C   8,H  16)    125.5167         0.010742   
     70. D(O  12,C  11,C   8,N  13)      5.9724         0.010742   
     71. D(O  12,C  11,C   8,C   5)   -116.4174         0.010742   
     72. D(H   3,N  13,C   8,C  11)    -57.2563         0.017669   
     73. D(H   3,N  13,C   8,C   5)     64.8924         0.017669   
     74. D(H   2,N  13,C   8,H  16)    -57.8712         0.017669   
     75. D(H   2,N  13,C   8,C  11)     61.2250         0.017669   
     76. D(H   2,N  13,C   8,C   5)   -176.6262         0.017669   
     77. D(H  18,O  15,C  11,O  12)      0.7701         0.034362   
     78. D(H  18,O  15,C  11,C   8)   -179.4512         0.034362   
    -----------------------------------------------------------------

Number of atoms                         .... 19
Number of degrees of freedom            .... 78


         *************************************************************
         *                GEOMETRY OPTIMIZATION CYCLE   1            *
         *************************************************************
---------------------------------
CARTESIAN COORDINATES (ANGSTROEM)
---------------------------------
  C     -3.310775    0.271821   -0.336060
  C     -2.226538    0.743697   -1.277860
  H     -1.479252    1.542741    2.348828
  H     -1.602851   -0.000682    1.820180
  O     -4.194760    1.237391   -0.067164
  C     -0.848440    0.393989   -0.718896
  H     -2.368917    0.230588   -2.230826
  H     -2.330908    1.817047   -1.426975
  C     -0.570910    1.206557    0.554769
  H     -0.829335   -0.670578   -0.476709
  H     -0.075141    0.605752   -1.457010
  C      0.815200    0.854197    1.086377
  O      1.023789    0.330926    2.147710
  N     -1.618897    0.970480    1.523161
  H     -4.867158    0.913057    0.551699
  O      1.791235    1.196922    0.238964
  H     -0.568055    2.273795    0.300449
  O     -3.425237   -0.850500    0.079338
  H      2.657976    0.952124    0.601922

----------------------------
CARTESIAN COORDINATES (A.U.)
----------------------------
  NO LB      ZA    FRAG     MASS         X           Y           Z
   0 C     6.0000    0    12.011   -6.256459    0.513667   -0.635062
   1 C     6.0000    0    12.011   -4.207548    1.405384   -2.414805
   2 H     1.0000    0     1.008   -2.795382    2.915357    4.438641
   3 H     1.0000    0     1.008   -3.028949   -0.001289    3.439643
   4 O     8.0000    0    15.999   -7.926947    2.338330   -0.126922
   5 C     6.0000    0    12.011   -1.603318    0.744531   -1.358516
   6 H     1.0000    0     1.008   -4.476604    0.435748   -4.215650
   7 H     1.0000    0     1.008   -4.404777    3.433720   -2.696591
   8 C     6.0000    0    12.011   -1.078864    2.280062    1.048361
   9 H     1.0000    0     1.008   -1.567216   -1.267208   -0.900849
  10 H     1.0000    0     1.008   -0.141996    1.144706   -2.753350
  11 C     6.0000    0    12.011    1.540506    1.614198    2.052954
  12 O     8.0000    0    15.999    1.934680    0.625360    4.058584
  13 N     7.0000    0    14.007   -3.059273    1.833942    2.878357
  14 H     1.0000    0     1.008   -9.197596    1.725428    1.042560
  15 O     8.0000    0    15.999    3.384943    2.261854    0.451577
  16 H     1.0000    0     1.008   -1.073469    4.296849    0.567766
  17 O     8.0000    0    15.999   -6.472759   -1.607212    0.149928
  18 H     1.0000    0     1.008    5.022846    1.799253    1.137468

--------------------------------
INTERNAL COORDINATES (ANGSTROEM)
--------------------------------
 C      0   0   0     0.000000000000     0.00000000     0.00000000
 C      1   0   0     1.511695657746     0.00000000     0.00000000
 H      1   2   0     3.489747496481    89.38204493     0.00000000
 H      3   1   2     1.636122675867    50.81775855   259.55392996
 O      1   2   3     1.336435212018   111.97717769    85.37247751
 C      2   1   3     1.527708263980   110.33998531    44.58032420
 H      2   1   3     1.091648709212   107.67373301   163.71698317
 H      2   1   3     1.088672238450   108.92498833   282.19871029
 C      6   2   1     1.536069783497   110.19828595   292.86179203
 H      6   2   1     1.091935055881   108.66939951    52.46283677
 H      6   2   1     1.089791988510   110.35282057   172.05165547
 C      9   6   2     1.525800554702   109.32128384   180.65503322
 O     12   9   6     1.201561427037   124.47353898   243.58264317
 N      3   1   2     1.014252548111    25.30393951   304.49485989
 H      5   1   2     0.969692491465   110.20704877   181.13597700
 O     12   9   6     1.337240146198   112.52509207    63.80773648
 H      9   6   2     1.097125130241   108.83505060   297.97094781
 O      1   2   3     1.202190189639   125.09763740   261.71305378
 H     16  12   9     0.971032435023   110.48820961   180.54879511

---------------------------
INTERNAL COORDINATES (A.U.)
---------------------------
 C      0   0   0     0.000000000000     0.00000000     0.00000000
 C      1   0   0     2.856690790977     0.00000000     0.00000000
 H      1   2   0     6.594667044886    89.38204493     0.00000000
 H      3   1   2     3.091823778887    50.81775855   259.55392996
 O      1   2   3     2.525496546443   111.97717769    85.37247751
 C      2   1   3     2.886950231450   110.33998531    44.58032420
 H      2   1   3     2.062917094860   107.67373301   163.71698317
 H      2   1   3     2.057292380274   108.92498833   282.19871029
 C      6   2   1     2.902751213401   110.19828595   292.86179203
 H      6   2   1     2.063458211642   108.66939951    52.46283677
 H      6   2   1     2.059408401225   110.35282057   172.05165547
 C      9   6   2     2.883345183372   109.32128384   180.65503322
 O     12   9   6     2.270622030183   124.47353898   243.58264317
 N      3   1   2     1.916659546562    25.30393951   304.49485989
 H      5   1   2     1.832453242989   110.20704877   181.13597700
 O     12   9   6     2.527017651598   112.52509207    63.80773648
 H      9   6   2     2.073266030798   108.83505060   297.97094781
 O      1   2   3     2.271810219304   125.09763740   261.71305378
 H     16  12   9     1.834985369348   110.48820961   180.54879511

---------------------
BASIS SET INFORMATION
---------------------
There are 4 groups of distinct atoms

 Group   1 Type C   : 10s4p1d contracted to 3s2p1d pattern {631/31/1}
 Group   2 Type H   : 4s1p contracted to 2s1p pattern {31/1}
 Group   3 Type O   : 10s4p1d contracted to 3s2p1d pattern {631/31/1}
 Group   4 Type N   : 10s4p1d contracted to 3s2p1d pattern {631/31/1}

Atom   0C    basis set group =>   1
Atom   1C    basis set group =>   1
Atom   2H    basis set group =>   2
Atom   3H    basis set group =>   2
Atom   4O    basis set group =>   3
Atom   5C    basis set group =>   1
Atom   6H    basis set group =>   2
Atom   7H    basis set group =>   2
Atom   8C    basis set group =>   1
Atom   9H    basis set group =>   2
Atom  10H    basis set group =>   2
Atom  11C    basis set group =>   1
Atom  12O    basis set group =>   3
Atom  13N    basis set group =>   4
Atom  14H    basis set group =>   2
Atom  15O    basis set group =>   3
Atom  16H    basis set group =>   2
Atom  17O    basis set group =>   3
Atom  18H    basis set group =>   2
------------------------------------------------------------------------------
                             ORCA STARTUP CALCULATIONS
------------------------------------------------------------------------------
------------------------------------------------------------------------------
                   ___                                                        
                  /   \      - P O W E R E D   B Y -                         
                 /     \                                                     
                 |  |  |   _    _      __       _____    __    __             
                 |  |  |  | |  | |    /  \     |  _  \  |  |  /  |          
                  \  \/   | |  | |   /    \    | | | |  |  | /  /          
                 / \  \   | |__| |  /  /\  \   | |_| |  |  |/  /          
                |  |  |   |  __  | /  /__\  \  |    /   |      \           
                |  |  |   | |  | | |   __   |  |    \   |  |\   \          
                \     /   | |  | | |  |  |  |  | |\  \  |  | \   \       
                 \___/    |_|  |_| |__|  |__|  |_| \__\ |__|  \__/        
                                                                              
                      - O R C A' S   B I G   F R I E N D -                    
                                      &                                       
                       - I N T E G R A L  F E E D E R -                       
                                                                              
 v1 FN, 2020, v2 2021, v3 2022-2024                                           
------------------------------------------------------------------------------


----------------------
SHARK INTEGRAL PACKAGE
----------------------

Number of atoms                             ...     19
Number of basis functions                   ...    185
Number of shells                            ...     87
Maximum angular momentum                    ...      2
Integral batch strategy                     ... SHARK/LIBINT Hybrid
RI-J (if used) integral strategy            ... SPLIT-RIJ (Revised 2003 algorithm where possible)
Printlevel                                  ...      1
Contraction scheme used                     ... SEGMENTED contraction
Prescreening option                         ... SCHWARTZ
   Thresh                                   ... 2.500e-11
   Tcut                                     ... 2.500e-12
   Tpresel                                  ... 2.500e-12 
Coulomb Range Separation                    ... NOT USED
Exchange Range Separation                   ... NOT USED
Multipole approximations                    ... NOT USED
Finite Nucleus Model                        ... NOT USED
CABS basis                                  ... NOT available
Auxiliary Coulomb fitting basis             ... NOT available
Auxiliary J/K fitting basis                 ... NOT available
Auxiliary Correlation fitting basis         ... NOT available
Auxiliary 'external' fitting basis          ... NOT available

Checking pre-screening integrals            ... done (  0.0 sec) Dimension = 87
   => SHARK Basis and OBASIS are compatible. Storing Pre-screening
Shell pair information
Shell pair cut-off parameter TPreSel        ...   2.5e-12
Total number of shell pairs                 ...      3828
Shell pairs after pre-screening             ...      3419
Total number of primitive shell pairs       ...     19347
Primitive shell pairs kept                  ...     11226
          la=0 lb=0:   1041 shell pairs
          la=1 lb=0:   1242 shell pairs
          la=1 lb=1:    399 shell pairs
          la=2 lb=0:    424 shell pairs
          la=2 lb=1:    265 shell pairs
          la=2 lb=2:     48 shell pairs

Checking whether 4 symmetric matrices of dimension 185 fit in memory
:Max Core in MB      =   4096.00
 MB in use           =      5.88
 MB left             =   4090.12
 MB needed           =      0.53
 Data fit in memory  = YES
Calculating Nuclear repulsion               ... done (  0.0 sec) ENN=    563.011994518693 Eh

Diagonalization of the overlap matrix:
Smallest eigenvalue                        ... 2.837e-03
Time for diagonalization                   ...    0.002 sec
Threshold for overlap eigenvalues          ... 1.000e-07
Number of eigenvalues below threshold      ... 0
Time for construction of square roots      ...    0.001 sec
Total time needed                          ...    0.003 sec

-------------------
DFT GRID GENERATION
-------------------

General Integration Accuracy     IntAcc      ... 4.388
Radial Grid Type                 RadialGrid  ... OptM3 with GC (2021)
Angular Grid (max. ang.)         AngularGrid ... 4 (Lebedev-302)
Angular grid pruning method      GridPruning ... 4 (adaptive)
Weight generation scheme         WeightScheme... mBecke (2022)
Basis function cutoff            BFCut       ... 1.0000e-11
Integration weight cutoff        WCut        ... 1.0000e-14
Partially contracted basis set               ... off
Rotationally invariant grid construction     ... off
Angular grids for H and He will be reduced by one unit

Total number of grid points                  ...    89143
Total number of batches                      ...     1403
Average number of points per batch           ...       63
Average number of grid points per atom       ...     4692
Grids setup in   0.4 sec
Initializing property integral containers    ... done (  0.0 sec)

SHARK setup successfully completed in   0.4 seconds

Maximum memory used throughout the entire STARTUP-calculation: 35.4 MB
-------------------------------------------------------------------------------
                                 ORCA GUESS
                   Start orbitals & Density for SCF / CASSCF
-------------------------------------------------------------------------------

------------
SCF SETTINGS
------------
Hamiltonian:
 Ab initio Hamiltonian  Method          .... Hartree-Fock(GTOs)


General Settings:
 Integral files         IntName         .... 3
 Hartree-Fock type      HFTyp           .... RHF
 Total Charge           Charge          ....    0
 Multiplicity           Mult            ....    1
 Number of Electrons    NEL             ....   78
 Basis Dimension        Dim             ....  185
 Nuclear Repulsion      ENuc            ....    563.0119945187 Eh

Convergence Acceleration:
 AO-DIIS                CNVDIIS         .... on
   Start iteration      DIISMaxIt       ....    12
   Startup error        DIISStart       ....  0.200000
   # of expansion vecs  DIISMaxEq       ....     5
   Bias factor          DIISBfac        ....   1.050
   Max. coefficient     DIISMaxC        ....  10.000
 MO-DIIS                CNVKDIIS        .... off
 Trust-Rad. Augm. Hess. CNVTRAH         .... auto
   Auto Start mean grad. ratio tolernc. ....  1.125000
   Auto Start start iteration           ....    50
   Auto Start num. interpolation iter.  ....    10
   Max. Number of Micro iterations      ....    24
   Max. Number of Macro iterations      .... Maxiter - #DIIS iter
   Number of Davidson start vectors     ....     2
   Converg. threshold    (grad. norm)   ....   1.000e-05
   Grad. Scal. Fac. for Micro threshold ....   0.100
   Minimum threshold for Micro iter.    ....   1.000e-02
   NR start threshold (gradient norm)   ....   1.000e-04
   Initial trust radius                 ....   0.400
   Minimum AH scaling param. (alpha)    ....   1.000
   Maximum AH scaling param. (alpha)    .... 1000.000
   Quad. conv. algorithm                .... NR
   White noise on init. David. guess    .... on
   Maximum white noise                  ....   0.010
   Pseudo random numbers                .... off
   Inactive MOs                         .... canonical
   Orbital update algorithm             .... Taylor
   Preconditioner                       .... Diag
   Full preconditioner red. dimension   ....   250
 SOSCF                 CNVSOSCF           .... on
   Start iteration     SOSCFMaxIt         ....   150
   Startup grad/error  SOSCFStart         ....  0.003300
   Hessian update      SOSCFHessUp        .... L-BFGS
   Autom. constraints  SOSCFAutoConstrain .... off
 Level Shifting         CNVShift        .... on
   Level shift para.    LevelShift      ....    0.2500
   Turn off err/grad.   ShiftErr        ....    0.0010
 Zerner damping         CNVZerner       .... off
 Static damping         CNVDamp         .... on
   Fraction old density DampFac         ....    0.7000
   Max. Damping (<1)    DampMax         ....    0.9800
   Min. Damping (>=0)   DampMin         ....    0.0000
   Turn off err/grad.   DampErr         ....    0.1000

SCF Procedure:
 Maximum # iterations   MaxIter         ....   125
 SCF integral mode      SCFMode         .... Direct
   Integral package                     .... SHARK and LIBINT hybrid scheme
 Reset frequency        DirectResetFreq ....    20
 Integral Threshold     Thresh          ....  2.500e-11 Eh
 Primitive CutOff       TCut            ....  2.500e-12 Eh

Convergence Tolerance:
 Convergence Check Mode ConvCheckMode   .... Total+1el-Energy
 Convergence forced     ConvForced      .... 1
 Energy Change          TolE            ....  1.000e-08 Eh
 1-El. energy change                    ....  1.000e-05 Eh
 Orbital Gradient       TolG            ....  1.000e-05
 Orbital Rotation angle TolX            ....  1.000e-05
 DIIS Error             TolErr          ....  5.000e-07

------------------------------
INITIAL GUESS: MODEL POTENTIAL
------------------------------
Loading Hartree-Fock densities                     ... done
Calculating cut-offs                               ... done
Initializing the effective Hamiltonian             ... done
Setting up the integral package (SHARK)            ... done
Starting the Coulomb interaction                   ... done (   0.1 sec)
Making the grid                                    ... done (   0.1 sec)
Mapping shells                                     ... done
Starting the XC term evaluation                    ... done (   0.0 sec)
Transforming the Hamiltonian                       ... done (   0.0 sec)
Diagonalizing the Hamiltonian                      ... done (   0.0 sec)
Back transforming the eigenvectors                 ... done (   0.0 sec)
Now organizing SCF variables                       ... done
                      ------------------
                      INITIAL GUESS DONE (   0.2 sec)
                      ------------------
             **** ENERGY FILE WAS UPDATED (3.en.tmp) ****
Finished Guess after   0.2 sec
Maximum memory used throughout the entire GUESS-calculation: 11.2 MB

-------------------------------------------------------------------------------------------
                                      ORCA LEAN-SCF
                              memory conserving SCF solver
-------------------------------------------------------------------------------------------

----------------------------------------D-I-I-S--------------------------------------------
Iteration    Energy (Eh)           Delta-E    RMSDP     MaxDP     DIISErr   Damp  Time(sec)
-------------------------------------------------------------------------------------------
               ***  Starting incremental Fock matrix formation  ***
    1    -548.1149929076558465     0.00e+00  2.56e-03  6.16e-02  2.51e-01  0.700   1.8
    2    -548.2686648131319771    -1.54e-01  1.87e-03  4.39e-02  1.54e-01  0.700   1.7
                               ***Turning on AO-DIIS***
    3    -548.3574205168239359    -8.88e-02  1.00e-03  2.09e-02  8.75e-02  0.700   1.7
    4    -548.4133753065763131    -5.60e-02  2.31e-03  4.52e-02  6.11e-02  0.000   1.7
    5    -548.5386171700992008    -1.25e-01  3.07e-04  6.49e-03  6.20e-03  0.000   1.7
    6    -548.5392548179858068    -6.38e-04  1.54e-04  3.40e-03  3.31e-03  0.000   1.6
                              *** Initializing SOSCF ***
---------------------------------------S-O-S-C-F--------------------------------------
Iteration    Energy (Eh)           Delta-E    RMSDP     MaxDP     MaxGrad    Time(sec)
--------------------------------------------------------------------------------------
    7    -548.5394045496744866    -1.50e-04  9.22e-05  2.32e-03  1.93e-03     1.5
               *** Restarting incremental Fock matrix formation ***
    8    -548.5394535817371207    -4.90e-05  4.50e-05  1.03e-03  7.34e-04     1.8
    9    -548.5394648048776389    -1.12e-05  4.95e-05  1.28e-03  4.90e-04     1.4
   10    -548.5394689850751320    -4.18e-06  8.89e-06  2.84e-04  1.77e-04     1.4
   11    -548.5394693408455851    -3.56e-07  3.19e-06  9.18e-05  3.76e-05     1.3
   12    -548.5394693940064599    -5.32e-08  8.15e-07  2.51e-05  9.43e-06     1.2
   13    -548.5394693972640425    -3.26e-09  4.40e-07  1.06e-05  1.81e-06     1.1
                 **** Energy Check signals convergence ****

               *****************************************************
               *                     SUCCESS                       *
               *           SCF CONVERGED AFTER  13 CYCLES          *
               *****************************************************

             **** ENERGY FILE WAS UPDATED (3.en.tmp) ****

----------------
TOTAL SCF ENERGY
----------------

Total Energy       :       -548.53946939754735 Eh          -14926.51781 eV

Components:
Nuclear Repulsion  :        563.01199451869309 Eh           15320.33524 eV
Electronic Energy  :      -1111.55146391624044 Eh          -30246.85305 eV
One Electron Energy:      -1869.74256898672729 Eh          -50878.28190 eV
Two Electron Energy:        758.19110507048686 Eh           20631.42885 eV

Virial components:
Potential Energy   :      -1096.35378775880235 Eh          -29833.30326 eV
Kinetic Energy     :        547.81431836125489 Eh           14906.78545 eV
Virial Ratio       :          2.00132371683614

---------------
SCF CONVERGENCE
---------------

  Last Energy change         ...    3.2576e-09  Tolerance :   1.0000e-08
  Last MAX-Density change    ...    1.0595e-05  Tolerance :   1.0000e-07
  Last RMS-Density change    ...    4.4026e-07  Tolerance :   5.0000e-09
  Last DIIS Error            ...    1.9339e-03  Tolerance :   5.0000e-07
  Last Orbital Gradient      ...    1.8051e-06  Tolerance :   1.0000e-05
  Last Orbital Rotation      ...    6.5390e-06  Tolerance :   1.0000e-05


----------------
ORBITAL ENERGIES
----------------

  NO   OCC          E(Eh)            E(eV) 
   0   2.0000     -20.623483      -561.1935 
   1   2.0000     -20.600602      -560.5709 
   2   2.0000     -20.559321      -559.4476 
   3   2.0000     -20.534232      -558.7649 
   4   2.0000     -15.553205      -423.2242 
   5   2.0000     -11.387639      -309.8734 
   6   2.0000     -11.377450      -309.5962 
   7   2.0000     -11.282624      -307.0158 
   8   2.0000     -11.244342      -305.9741 
   9   2.0000     -11.243061      -305.9393 
  10   2.0000      -1.474285       -40.1173 
  11   2.0000      -1.453195       -39.5434 
  12   2.0000      -1.368258       -37.2322 
  13   2.0000      -1.346866       -36.6501 
  14   2.0000      -1.208223       -32.8774 
  15   2.0000      -1.075549       -29.2672 
  16   2.0000      -0.986775       -26.8515 
  17   2.0000      -0.891532       -24.2598 
  18   2.0000      -0.816601       -22.2209 
  19   2.0000      -0.790423       -21.5085 
  20   2.0000      -0.716489       -19.4966 
  21   2.0000      -0.708427       -19.2773 
  22   2.0000      -0.696439       -18.9511 
  23   2.0000      -0.687301       -18.7024 
  24   2.0000      -0.663830       -18.0637 
  25   2.0000      -0.637896       -17.3580 
  26   2.0000      -0.627984       -17.0883 
  27   2.0000      -0.609607       -16.5883 
  28   2.0000      -0.593140       -16.1401 
  29   2.0000      -0.569288       -15.4911 
  30   2.0000      -0.563154       -15.3242 
  31   2.0000      -0.529313       -14.4033 
  32   2.0000      -0.519828       -14.1452 
  33   2.0000      -0.501130       -13.6364 
  34   2.0000      -0.481808       -13.1107 
  35   2.0000      -0.462580       -12.5874 
  36   2.0000      -0.455988       -12.4081 
  37   2.0000      -0.433566       -11.7979 
  38   2.0000      -0.404744       -11.0136 
  39   0.0000       0.178375         4.8538 
  40   0.0000       0.199970         5.4414 
  41   0.0000       0.217954         5.9308 
  42   0.0000       0.226642         6.1673 
  43   0.0000       0.245043         6.6680 
  44   0.0000       0.262913         7.1542 
  45   0.0000       0.271256         7.3813 
  46   0.0000       0.308503         8.3948 
  47   0.0000       0.321283         8.7426 
  48   0.0000       0.323109         8.7923 
  49   0.0000       0.336780         9.1642 
*Only the first 10 virtual orbitals were printed.

                    ********************************
                    * MULLIKEN POPULATION ANALYSIS *
                    ********************************

-----------------------
MULLIKEN ATOMIC CHARGES
-----------------------
   0 C :    0.856344
   1 C :   -0.302987
   2 H :    0.286684
   3 H :    0.301377
   4 O :   -0.638723
   5 C :   -0.253408
   6 H :    0.163566
   7 H :    0.155688
   8 C :   -0.022740
   9 H :    0.157565
  10 H :    0.155313
  11 C :    0.783280
  12 O :   -0.578059
  13 N :   -0.712181
  14 H :    0.365185
  15 O :   -0.637094
  16 H :    0.159696
  17 O :   -0.614178
  18 H :    0.374670
Sum of atomic charges:   -0.0000000

--------------------------------
MULLIKEN REDUCED ORBITAL CHARGES
--------------------------------
  0 C s       :     2.936958  s :     2.936958
      pz      :     0.683795  p :     2.057352
      px      :     0.716264
      py      :     0.657294
      dz2     :     0.017355  d :     0.149345
      dxz     :     0.014396
      dyz     :     0.034188
      dx2y2   :     0.032163
      dxy     :     0.051243

  1 C s       :     3.258454  s :     3.258454
      pz      :     1.006452  p :     2.998426
      px      :     0.910787
      py      :     1.081186
      dz2     :     0.007542  d :     0.046106
      dxz     :     0.011916
      dyz     :     0.007522
      dx2y2   :     0.013440
      dxy     :     0.005688

  2 H s       :     0.687225  s :     0.687225
      pz      :     0.011762  p :     0.026090
      px      :     0.006263
      py      :     0.008065

  3 H s       :     0.672859  s :     0.672859
      pz      :     0.004595  p :     0.025763
      px      :     0.006048
      py      :     0.015120

  4 O s       :     3.838352  s :     3.838352
      pz      :     1.667983  p :     4.774769
      px      :     1.455892
      py      :     1.650893
      dz2     :     0.002586  d :     0.025602
      dxz     :     0.003779
      dyz     :     0.005510
      dx2y2   :     0.003698
      dxy     :     0.010029

  5 C s       :     3.247816  s :     3.247816
      pz      :     0.950794  p :     2.957386
      px      :     0.970620
      py      :     1.035972
      dz2     :     0.007773  d :     0.048205
      dxz     :     0.013013
      dyz     :     0.008698
      dx2y2   :     0.014808
      dxy     :     0.003913

  6 H s       :     0.823455  s :     0.823455
      pz      :     0.007553  p :     0.012980
      px      :     0.001997
      py      :     0.003430

  7 H s       :     0.831720  s :     0.831720
      pz      :     0.001681  p :     0.012592
      px      :     0.001661
      py      :     0.009250

  8 C s       :     3.198798  s :     3.198798
      pz      :     0.886290  p :     2.753269
      px      :     0.795868
      py      :     1.071110
      dz2     :     0.014672  d :     0.070673
      dxz     :     0.017761
      dyz     :     0.010622
      dx2y2   :     0.022017
      dxy     :     0.005601

  9 H s       :     0.829878  s :     0.829878
      pz      :     0.001936  p :     0.012557
      px      :     0.001574
      py      :     0.009047

 10 H s       :     0.832069  s :     0.832069
      pz      :     0.005022  p :     0.012618
      px      :     0.005627
      py      :     0.001969

 11 C s       :     2.945830  s :     2.945830
      pz      :     0.692098  p :     2.124592
      px      :     0.785579
      py      :     0.646914
      dz2     :     0.034660  d :     0.146298
      dxz     :     0.051833
      dyz     :     0.024122
      dx2y2   :     0.016439
      dxy     :     0.019243

 12 O s       :     3.872267  s :     3.872267
      pz      :     1.402951  p :     4.672814
      px      :     1.821270
      py      :     1.448593
      dz2     :     0.012230  d :     0.032977
      dxz     :     0.005944
      dyz     :     0.010281
      dx2y2   :     0.002869
      dxy     :     0.001653

 13 N s       :     3.607583  s :     3.607583
      pz      :     1.240304  p :     4.070688
      px      :     1.590536
      py      :     1.239848
      dz2     :     0.005279  d :     0.033910
      dxz     :     0.008046
      dyz     :     0.009103
      dx2y2   :     0.009124
      dxy     :     0.002358

 14 H s       :     0.593250  s :     0.593250
      pz      :     0.016220  p :     0.041565
      px      :     0.016849
      py      :     0.008497

 15 O s       :     3.836437  s :     3.836437
      pz      :     1.682846  p :     4.775410
      px      :     1.279672
      py      :     1.812893
      dz2     :     0.004161  d :     0.025247
      dxz     :     0.010866
      dyz     :     0.004112
      dx2y2   :     0.002442
      dxy     :     0.003665

 16 H s       :     0.828184  s :     0.828184
      pz      :     0.001867  p :     0.012119
      px      :     0.001299
      py      :     0.008953

 17 O s       :     3.875168  s :     3.875168
      pz      :     1.566865  p :     4.706674
      px      :     1.732125
      py      :     1.407685
      dz2     :     0.004934  d :     0.032336
      dxz     :     0.000977
      dyz     :     0.010217
      dx2y2   :     0.008382
      dxy     :     0.007825

 18 H s       :     0.583804  s :     0.583804
      pz      :     0.009339  p :     0.041526
      px      :     0.022646
      py      :     0.009541



                     *******************************
                     * LOEWDIN POPULATION ANALYSIS *
                     *******************************

----------------------
LOEWDIN ATOMIC CHARGES
----------------------
   0 C :    0.252102
   1 C :   -0.125796
   2 H :    0.135094
   3 H :    0.142592
   4 O :   -0.205911
   5 C :   -0.102312
   6 H :    0.091201
   7 H :    0.080565
   8 C :   -0.026184
   9 H :    0.079827
  10 H :    0.078251
  11 C :    0.226610
  12 O :   -0.303607
  13 N :   -0.261597
  14 H :    0.197358
  15 O :   -0.210345
  16 H :    0.081731
  17 O :   -0.332344
  18 H :    0.202765

-------------------------------
LOEWDIN REDUCED ORBITAL CHARGES
-------------------------------
  0 C s       :     2.839532  s :     2.839532
      pz      :     0.785251  p :     2.586428
      px      :     0.846508
      py      :     0.954670
      dz2     :     0.037698  d :     0.321937
      dxz     :     0.028465
      dyz     :     0.071521
      dx2y2   :     0.071129
      dxy     :     0.113123

  1 C s       :     2.894587  s :     2.894587
      pz      :     1.050972  p :     3.144168
      px      :     1.016276
      py      :     1.076920
      dz2     :     0.013466  d :     0.087041
      dxz     :     0.024119
      dyz     :     0.012820
      dx2y2   :     0.025286
      dxy     :     0.011351

  2 H s       :     0.782800  s :     0.782800
      pz      :     0.036473  p :     0.082106
      px      :     0.021582
      py      :     0.024052

  3 H s       :     0.774370  s :     0.774370
      pz      :     0.016054  p :     0.083038
      px      :     0.020986
      py      :     0.045998

  4 O s       :     3.458092  s :     3.458092
      pz      :     1.627030  p :     4.699726
      px      :     1.431471
      py      :     1.641225
      dz2     :     0.004717  d :     0.048093
      dxz     :     0.009784
      dyz     :     0.007383
      dx2y2   :     0.008457
      dxy     :     0.017753

  5 C s       :     2.890598  s :     2.890598
      pz      :     1.023051  p :     3.120784
      px      :     1.028444
      py      :     1.069288
      dz2     :     0.015414  d :     0.090931
      dxz     :     0.024693
      dyz     :     0.016587
      dx2y2   :     0.026461
      dxy     :     0.007777

  6 H s       :     0.868019  s :     0.868019
      pz      :     0.022505  p :     0.040780
      px      :     0.007207
      py      :     0.011068

  7 H s       :     0.878398  s :     0.878398
      pz      :     0.006955  p :     0.041036
      px      :     0.006464
      py      :     0.027617

  8 C s       :     2.869224  s :     2.869224
      pz      :     0.991360  p :     3.014685
      px      :     0.955693
      py      :     1.067632
      dz2     :     0.030318  d :     0.142274
      dxz     :     0.036739
      dyz     :     0.020553
      dx2y2   :     0.043486
      dxy     :     0.011180

  9 H s       :     0.878939  s :     0.878939
      pz      :     0.007397  p :     0.041234
      px      :     0.006553
      py      :     0.027284

 10 H s       :     0.880821  s :     0.880821
      pz      :     0.016168  p :     0.040928
      px      :     0.017276
      py      :     0.007484

 11 C s       :     2.847544  s :     2.847544
      pz      :     0.926453  p :     2.608277
      px      :     0.951602
      py      :     0.730222
      dz2     :     0.075015  d :     0.317570
      dxz     :     0.116226
      dyz     :     0.052376
      dx2y2   :     0.032232
      dxy     :     0.041720

 12 O s       :     3.547437  s :     3.547437
      pz      :     1.468865  p :     4.698569
      px      :     1.785401
      py      :     1.444304
      dz2     :     0.020624  d :     0.057601
      dxz     :     0.012035
      dyz     :     0.018148
      dx2y2   :     0.003643
      dxy     :     0.003151

 13 N s       :     3.182559  s :     3.182559
      pz      :     1.235220  p :     4.018681
      px      :     1.571504
      py      :     1.211958
      dz2     :     0.010263  d :     0.060357
      dxz     :     0.014160
      dyz     :     0.016413
      dx2y2   :     0.015297
      dxy     :     0.004224

 14 H s       :     0.682405  s :     0.682405
      pz      :     0.046178  p :     0.120237
      px      :     0.046745
      py      :     0.027314

 15 O s       :     3.457133  s :     3.457133
      pz      :     1.667775  p :     4.705278
      px      :     1.269521
      py      :     1.767982
      dz2     :     0.007615  d :     0.047934
      dxz     :     0.019266
      dyz     :     0.005179
      dx2y2   :     0.009205
      dxy     :     0.006669

 16 H s       :     0.878744  s :     0.878744
      pz      :     0.007595  p :     0.039526
      px      :     0.005301
      py      :     0.026630

 17 O s       :     3.545020  s :     3.545020
      pz      :     1.553062  p :     4.730763
      px      :     1.693775
      py      :     1.483926
      dz2     :     0.007283  d :     0.056561
      dxz     :     0.001812
      dyz     :     0.016982
      dx2y2   :     0.018266
      dxy     :     0.012216

 18 H s       :     0.676868  s :     0.676868
      pz      :     0.029605  p :     0.120367
      px      :     0.061251
      py      :     0.029511



                      *****************************
                      * MAYER POPULATION ANALYSIS *
                      *****************************

  NA   - Mulliken gross atomic population
  ZA   - Total nuclear charge
  QA   - Mulliken gross atomic charge
  VA   - Mayer's total valence
  BVA  - Mayer's bonded valence
  FA   - Mayer's free valence

  ATOM       NA         ZA         QA         VA         BVA        FA
  0 C      5.1437     6.0000     0.8563     3.6756     3.6756     0.0000
  1 C      6.3030     6.0000    -0.3030     3.7723     3.7723     0.0000
  2 H      0.7133     1.0000     0.2867     0.9033     0.9033    -0.0000
  3 H      0.6986     1.0000     0.3014     0.8961     0.8961    -0.0000
  4 O      8.6387     8.0000    -0.6387     1.8405     1.8405     0.0000
  5 C      6.2534     6.0000    -0.2534     3.7813     3.7813    -0.0000
  6 H      0.8364     1.0000     0.1636     0.9450     0.9450     0.0000
  7 H      0.8443     1.0000     0.1557     0.9447     0.9447     0.0000
  8 C      6.0227     6.0000    -0.0227     3.7408     3.7408    -0.0000
  9 H      0.8424     1.0000     0.1576     0.9476     0.9476    -0.0000
 10 H      0.8447     1.0000     0.1553     0.9470     0.9470    -0.0000
 11 C      5.2167     6.0000     0.7833     3.7089     3.7089     0.0000
 12 O      8.5781     8.0000    -0.5781     1.9118     1.9118    -0.0000
 13 N      7.7122     7.0000    -0.7122     2.7631     2.7631    -0.0000
 14 H      0.6348     1.0000     0.3652     0.8778     0.8778    -0.0000
 15 O      8.6371     8.0000    -0.6371     1.8175     1.8175     0.0000
 16 H      0.8403     1.0000     0.1597     0.9396     0.9396    -0.0000
 17 O      8.6142     8.0000    -0.6142     1.8574     1.8574     0.0000
 18 H      0.6253     1.0000     0.3747     0.8699     0.8699     0.0000

  Mayer bond orders larger than 0.100000
B(  0-C ,  1-C ) :   0.9329 B(  0-C ,  4-O ) :   0.9783 B(  0-C , 17-O ) :   1.7890 
B(  1-C ,  5-C ) :   0.9667 B(  1-C ,  6-H ) :   0.9629 B(  1-C ,  7-H ) :   0.9630 
B(  2-H , 13-N ) :   0.9057 B(  3-H , 13-N ) :   0.8865 B(  4-O , 14-H ) :   0.8459 
B(  5-C ,  8-C ) :   0.9540 B(  5-C ,  9-H ) :   0.9566 B(  5-C , 10-H ) :   0.9661 
B(  8-C , 11-C ) :   0.9257 B(  8-C , 13-N ) :   0.9846 B(  8-C , 16-H ) :   0.9537 
B( 11-C , 12-O ) :   1.8468 B( 11-C , 15-O ) :   0.9664 B( 15-O , 18-H ) :   0.8384 


-------
TIMINGS
-------

Total SCF time: 0 days 0 hours 0 min 21 sec 

Total time                  ....      21.055 sec
Sum of individual times     ....      20.016 sec  ( 95.1%)

SCF preparation             ....       0.017 sec  (  0.1%)
Fock matrix formation       ....      19.945 sec  ( 94.7%)
  Startup                   ....       0.001 sec  (  0.0% of F)
  Coulomb+Exchange Fock     ....      20.969 sec  (105.1% of F)
Diagonalization             ....       0.000 sec  (  0.0%)
Density matrix formation    ....       0.004 sec  (  0.0%)
Total Energy calculation    ....       0.001 sec  (  0.0%)
Population analysis         ....       0.002 sec  (  0.0%)
Orbital Transformation      ....       0.005 sec  (  0.0%)
Orbital Orthonormalization  ....       0.000 sec  (  0.0%)
DIIS solution               ....       0.028 sec  (  0.1%)
SOSCF solution              ....       0.013 sec  (  0.1%)
Finished LeanSCF after  21.1 sec

Maximum memory used throughout the entire LEANSCF-calculation: 14.8 MB

------------------------------------------------------------------------------
                                ORCA  MP2 
------------------------------------------------------------------------------

Freezing NCore=20 chemical core electrons
MP2 will be done in the AO integral direct mode
The Q1-step will be done using symmetric double matrices
Dimension of the basis                    ...  185
Memory devoted for MP2                    ... 4096 MB   
Memory needed for all in one shot         ...  705 MB
Number of MOs that can be treated together...  167      
MP2 density construction                  ... relaxed
The MP2 gradient is requested => amplitudes will be stored on disk
Total number of MOs              ...   29
Number of MOs treated per batch  ...   29 
Number of batches necessary      ...    1 
OPERATORS   0/  0 PASS   0
-----------------------------------------------
 MP2 CORRELATION ENERGY   :     -1.545447424 Eh
-----------------------------------------------


---------------------
MP2 DENSITY FORMATION
---------------------

Completing the external part of the density      ... done
Storing the unrelaxed density                    ... done

Calculating G(D)                                 ... done
Completing the Lagrangian                        ... done
Solving the Z-vector equations                   ... 
-------------------
SHARK CP-SCF DRIVER
-------------------

Dimension of the orbital basis          ...    185
Dimension of the CPSCF-problem          ...   5694
Number of operators                     ...      1
Max. number of iterations               ...    128
Convergence Tolerance                   ... 1.0e-04
Number of perturbations                 ...      1
Perturbation type                       ... REAL

----------------------------
POPLE LINEAR EQUATION SOLVER
----------------------------

  ITERATION   0:   ||err||_max =   1.6183e-01 (   2.3 sec)
  ITERATION   1:   ||err||_max =   4.1254e-02 (   2.3 sec)
  ITERATION   2:   ||err||_max =   1.7371e-02 (   2.4 sec)
  ITERATION   3:   ||err||_max =   4.4961e-03 (   2.4 sec)
  ITERATION   4:   ||err||_max =   1.5120e-03 (   2.4 sec)
  ITERATION   5:   ||err||_max =   4.1506e-04 (   2.4 sec)
  ITERATION   6:   ||err||_max =   1.5394e-04 (   2.4 sec)
  ITERATION   7:   ||err||_max =   6.0637e-05 (   2.4 sec)
                                                 ... done
Finalizing the relaxed density                   ... done
Transforming P to the AO basis                   ... done
Storing the relaxed density                      ... done

------------------------------------
ENERGY WEIGHTED DENSITY FINALIZATION
------------------------------------

Gathering the parts of the W-matrix              ...                                                      done
Forming the Z-density                            ... done
Transforming Z to the AO basis                   ... done
Calculating G(Z)                                 ... done
Finalizing the W-matrix                          ...                                                      done
Transforming W to the AO basis and storing       ... done

                *********************************************
                * UNRELAXED MP2 DENSITY POPULATION ANALYSIS *
                *********************************************

------------------------------------------------------------------------------
                           ORCA POPULATION ANALYSIS
------------------------------------------------------------------------------
Input electron density              ... 3.pmp2ur
BaseName (.gbw .S,...)              ... 3

                    ********************************
                    * MULLIKEN POPULATION ANALYSIS *
                    ********************************

-----------------------
MULLIKEN ATOMIC CHARGES
-----------------------
   0 C :    0.822290
   1 C :   -0.303674
   2 H :    0.285348
   3 H :    0.299577
   4 O :   -0.625189
   5 C :   -0.255087
   6 H :    0.164207
   7 H :    0.156248
   8 C :   -0.028145
   9 H :    0.157927
  10 H :    0.155910
  11 C :    0.750244
  12 O :   -0.555213
  13 N :   -0.703462
  14 H :    0.361977
  15 O :   -0.623556
  16 H :    0.160353
  17 O :   -0.591229
  18 H :    0.371474
Sum of atomic charges:   -0.0000000

--------------------------------
MULLIKEN REDUCED ORBITAL CHARGES
--------------------------------
  0 C s       :     2.938785  s :     2.938785
      pz      :     0.694558  p :     2.079286
      px      :     0.723179
      py      :     0.661549
      dz2     :     0.019565  d :     0.159640
      dxz     :     0.016461
      dyz     :     0.036115
      dx2y2   :     0.034355
      dxy     :     0.053143
  1 C s       :     3.254931  s :     3.254931
      pz      :     1.002498  p :     2.986078
      px      :     0.907213
      py      :     1.076366
      dz2     :     0.011089  d :     0.062665
      dxz     :     0.015028
      dyz     :     0.010810
      dx2y2   :     0.016539
      dxy     :     0.009199
  2 H s       :     0.686571  s :     0.686571
      pz      :     0.012256  p :     0.028081
      px      :     0.007142
      py      :     0.008683
  3 H s       :     0.672676  s :     0.672676
      pz      :     0.005423  p :     0.027747
      px      :     0.006943
      py      :     0.015381
  4 O s       :     3.834125  s :     3.834125
      pz      :     1.656384  p :     4.742544
      px      :     1.446401
      py      :     1.639759
      dz2     :     0.007160  d :     0.048519
      dxz     :     0.008512
      dyz     :     0.010056
      dx2y2   :     0.008445
      dxy     :     0.014347
  5 C s       :     3.244580  s :     3.244580
      pz      :     0.947438  p :     2.946046
      px      :     0.966912
      py      :     1.031695
      dz2     :     0.011109  d :     0.064462
      dxz     :     0.016242
      dyz     :     0.011834
      dx2y2   :     0.017838
      dxy     :     0.007439
  6 H s       :     0.820163  s :     0.820163
      pz      :     0.008268  p :     0.015630
      px      :     0.003023
      py      :     0.004338
  7 H s       :     0.828445  s :     0.828445
      pz      :     0.002722  p :     0.015307
      px      :     0.002724
      py      :     0.009860
  8 C s       :     3.195700  s :     3.195700
      pz      :     0.883875  p :     2.746199
      px      :     0.796433
      py      :     1.065891
      dz2     :     0.017920  d :     0.086246
      dxz     :     0.020642
      dyz     :     0.013804
      dx2y2   :     0.024800
      dxy     :     0.009080
  9 H s       :     0.826775  s :     0.826775
      pz      :     0.002976  p :     0.015298
      px      :     0.002635
      py      :     0.009688
 10 H s       :     0.828755  s :     0.828755
      pz      :     0.005883  p :     0.015335
      px      :     0.006466
      py      :     0.002986
 11 C s       :     2.947537  s :     2.947537
      pz      :     0.697165  p :     2.145414
      px      :     0.787761
      py      :     0.660488
      dz2     :     0.036632  d :     0.156806
      dxz     :     0.054041
      dyz     :     0.025910
      dx2y2   :     0.018502
      dxy     :     0.021720
 12 O s       :     3.867680  s :     3.867680
      pz      :     1.392810  p :     4.633017
      px      :     1.806376
      py      :     1.433831
      dz2     :     0.016301  d :     0.054516
      dxz     :     0.010601
      dyz     :     0.014255
      dx2y2   :     0.007229
      dxy     :     0.006131
 13 N s       :     3.602899  s :     3.602899
      pz      :     1.232838  p :     4.044218
      px      :     1.577933
      py      :     1.233446
      dz2     :     0.009907  d :     0.056345
      dxz     :     0.012488
      dyz     :     0.013401
      dx2y2   :     0.013539
      dxy     :     0.007011
 14 H s       :     0.595286  s :     0.595286
      pz      :     0.016555  p :     0.042737
      px      :     0.017087
      py      :     0.009095
 15 O s       :     3.832278  s :     3.832278
      pz      :     1.671260  p :     4.743039
      px      :     1.272102
      py      :     1.799676
      dz2     :     0.008795  d :     0.048240
      dxz     :     0.015226
      dyz     :     0.008653
      dx2y2   :     0.007160
      dxy     :     0.008405
 16 H s       :     0.824822  s :     0.824822
      pz      :     0.002878  p :     0.014825
      px      :     0.002343
      py      :     0.009604
 17 O s       :     3.870725  s :     3.870725
      pz      :     1.551439  p :     4.666315
      px      :     1.716591
      py      :     1.398285
      dz2     :     0.009289  d :     0.054188
      dxz     :     0.005447
      dyz     :     0.014448
      dx2y2   :     0.012583
      dxy     :     0.012421
 18 H s       :     0.585860  s :     0.585860
      pz      :     0.009910  p :     0.042666
      px      :     0.022613
      py      :     0.010143


                     *******************************
                     * LOEWDIN POPULATION ANALYSIS *
                     *******************************

----------------------
LOEWDIN ATOMIC CHARGES
----------------------
   0 C :    0.227579
   1 C :   -0.126286
   2 H :    0.134390
   3 H :    0.141619
   4 O :   -0.197385
   5 C :   -0.103145
   6 H :    0.091226
   7 H :    0.080666
   8 C :   -0.029645
   9 H :    0.079929
  10 H :    0.078428
  11 C :    0.202627
  12 O :   -0.285210
  13 N :   -0.256454
  14 H :    0.194982
  15 O :   -0.201794
  16 H :    0.081862
  17 O :   -0.313801
  18 H :    0.200411

-------------------------------
LOEWDIN REDUCED ORBITAL CHARGES
-------------------------------
  0 C s       :     2.840401  s :     2.840401
      pz      :     0.793622  p :     2.598923
      px      :     0.850350
      py      :     0.954950
      dz2     :     0.040172  d :     0.333097
      dxz     :     0.031030
      dyz     :     0.073558
      dx2y2   :     0.073766
      dxy     :     0.114570
  1 C s       :     2.894249  s :     2.894249
      pz      :     1.044986  p :     3.125854
      px      :     1.010013
      py      :     1.070855
      dz2     :     0.017508  d :     0.106183
      dxz     :     0.027828
      dyz     :     0.016580
      dx2y2   :     0.029130
      dxy     :     0.015137
  2 H s       :     0.779820  s :     0.779820
      pz      :     0.038033  p :     0.085790
      px      :     0.022550
      py      :     0.025207
  3 H s       :     0.771710  s :     0.771710
      pz      :     0.017169  p :     0.086671
      px      :     0.021909
      py      :     0.047593
  4 O s       :     3.456149  s :     3.456149
      pz      :     1.615781  p :     4.668723
      px      :     1.422228
      py      :     1.630714
      dz2     :     0.009416  d :     0.072513
      dxz     :     0.014908
      dyz     :     0.012114
      dx2y2   :     0.013246
      dxy     :     0.022829
  5 C s       :     2.890371  s :     2.890371
      pz      :     1.017279  p :     3.103122
      px      :     1.022513
      py      :     1.063329
      dz2     :     0.019178  d :     0.109652
      dxz     :     0.028549
      dyz     :     0.020193
      dx2y2   :     0.030206
      dxy     :     0.011526
  6 H s       :     0.863442  s :     0.863442
      pz      :     0.024346  p :     0.045332
      px      :     0.008512
      py      :     0.012473
  7 H s       :     0.873663  s :     0.873663
      pz      :     0.008279  p :     0.045671
      px      :     0.007782
      py      :     0.029610
  8 C s       :     2.869492  s :     2.869492
      pz      :     0.986320  p :     2.999872
      px      :     0.952309
      py      :     1.061244
      dz2     :     0.033864  d :     0.160281
      dxz     :     0.040321
      dyz     :     0.024256
      dx2y2   :     0.046931
      dxy     :     0.014909
  9 H s       :     0.874153  s :     0.874153
      pz      :     0.008742  p :     0.045918
      px      :     0.007874
      py      :     0.029302
 10 H s       :     0.875959  s :     0.875959
      pz      :     0.017833  p :     0.045613
      px      :     0.018986
      py      :     0.008795
 11 C s       :     2.848283  s :     2.848283
      pz      :     0.928257  p :     2.620093
      px      :     0.950024
      py      :     0.741811
      dz2     :     0.077160  d :     0.328998
      dxz     :     0.118023
      dyz     :     0.054880
      dx2y2   :     0.034769
      dxy     :     0.044166
 12 O s       :     3.544435  s :     3.544435
      pz      :     1.458019  p :     4.659076
      px      :     1.771055
      py      :     1.430002
      dz2     :     0.025770  d :     0.081700
      dxz     :     0.016940
      dyz     :     0.023122
      dx2y2   :     0.008162
      dxy     :     0.007705
 13 N s       :     3.180670  s :     3.180670
      pz      :     1.227072  p :     3.990923
      px      :     1.558665
      py      :     1.205186
      dz2     :     0.015139  d :     0.084861
      dxz     :     0.019308
      dyz     :     0.021177
      dx2y2   :     0.020308
      dxy     :     0.008929
 14 H s       :     0.682271  s :     0.682271
      pz      :     0.046996  p :     0.122746
      px      :     0.047564
      py      :     0.028186
 15 O s       :     3.455216  s :     3.455216
      pz      :     1.656796  p :     4.674152
      px      :     1.262064
      py      :     1.755292
      dz2     :     0.012322  d :     0.072425
      dxz     :     0.024394
      dyz     :     0.009906
      dx2y2   :     0.014254
      dxy     :     0.011548
 16 H s       :     0.873805  s :     0.873805
      pz      :     0.009001  p :     0.044333
      px      :     0.006705
      py      :     0.028627
 17 O s       :     3.542123  s :     3.542123
      pz      :     1.538134  p :     4.690710
      px      :     1.678893
      py      :     1.473683
      dz2     :     0.011968  d :     0.080967
      dxz     :     0.006335
      dyz     :     0.022040
      dx2y2   :     0.023506
      dxy     :     0.017118
 18 H s       :     0.676778  s :     0.676778
      pz      :     0.030462  p :     0.122812
      px      :     0.062148
      py      :     0.030202


                      *****************************
                      * MAYER POPULATION ANALYSIS *
                      *****************************

  NA   - Mulliken gross atomic population
  ZA   - Total nuclear charge
  QA   - Mulliken gross atomic charge
  VA   - Mayer's total valence
  BVA  - Mayer's bonded valence
  FA   - Mayer's free valence

  ATOM       NA         ZA         QA         VA         BVA        FA
  0 C      5.1777     6.0000     0.8223     3.7381     3.4552     0.2828
  1 C      6.3037     6.0000    -0.3037     3.8598     3.5931     0.2667
  2 H      0.7147     1.0000     0.2853     0.9102     0.8649     0.0453
  3 H      0.7004     1.0000     0.2996     0.9034     0.8579     0.0454
  4 O      8.6252     8.0000    -0.6252     2.0977     1.7431     0.3547
  5 C      6.2551     6.0000    -0.2551     3.8674     3.5958     0.2717
  6 H      0.8358     1.0000     0.1642     0.9531     0.9059     0.0472
  7 H      0.8438     1.0000     0.1562     0.9533     0.9064     0.0469
  8 C      6.0281     6.0000    -0.0281     3.8165     3.5384     0.2781
  9 H      0.8421     1.0000     0.1579     0.9565     0.9087     0.0478
 10 H      0.8441     1.0000     0.1559     0.9555     0.9080     0.0474
 11 C      5.2498     6.0000     0.7502     3.7710     3.4812     0.2898
 12 O      8.5552     8.0000    -0.5552     2.1754     1.7783     0.3971
 13 N      7.7035     7.0000    -0.7035     2.9606     2.6299     0.3307
 14 H      0.6380     1.0000     0.3620     0.8848     0.8402     0.0445
 15 O      8.6236     8.0000    -0.6236     2.0763     1.7206     0.3556
 16 H      0.8396     1.0000     0.1604     0.9481     0.8998     0.0483
 17 O      8.5912     8.0000    -0.5912     2.1257     1.7305     0.3952
 18 H      0.6285     1.0000     0.3715     0.8768     0.8328     0.0440

  Mayer bond orders larger than 0.100000
B(  0-C ,  1-C ) :   0.8840 B(  0-C ,  4-O ) :   0.9246 B(  0-C , 17-O ) :   1.6744 
B(  1-C ,  5-C ) :   0.9135 B(  1-C ,  6-H ) :   0.9260 B(  1-C ,  7-H ) :   0.9262 
B(  2-H , 13-N ) :   0.8689 B(  3-H , 13-N ) :   0.8502 B(  4-O , 14-H ) :   0.8109 
B(  5-C ,  8-C ) :   0.9007 B(  5-C ,  9-H ) :   0.9192 B(  5-C , 10-H ) :   0.9287 
B(  8-C , 11-C ) :   0.8754 B(  8-C , 13-N ) :   0.9282 B(  8-C , 16-H ) :   0.9162 
B( 11-C , 12-O ) :   1.7265 B( 11-C , 15-O ) :   0.9133 B( 15-O , 18-H ) :   0.8038 



                *******************************************
                * RELAXED MP2 DENSITY POPULATION ANALYSIS *
                *******************************************

------------------------------------------------------------------------------
                           ORCA POPULATION ANALYSIS
------------------------------------------------------------------------------
Input electron density              ... 3.pmp2re
BaseName (.gbw .S,...)              ... 3

                    ********************************
                    * MULLIKEN POPULATION ANALYSIS *
                    ********************************

-----------------------
MULLIKEN ATOMIC CHARGES
-----------------------
   0 C :    0.629565
   1 C :   -0.288641
   2 H :    0.268432
   3 H :    0.277431
   4 O :   -0.526579
   5 C :   -0.232162
   6 H :    0.149694
   7 H :    0.140475
   8 C :   -0.044565
   9 H :    0.140259
  10 H :    0.141749
  11 C :    0.557924
  12 O :   -0.426331
  13 N :   -0.630736
  14 H :    0.336029
  15 O :   -0.524650
  16 H :    0.145897
  17 O :   -0.459291
  18 H :    0.345500
Sum of atomic charges:   -0.0000000

--------------------------------
MULLIKEN REDUCED ORBITAL CHARGES
--------------------------------
  0 C s       :     2.956415  s :     2.956415
      pz      :     0.777918  p :     2.263919
      px      :     0.784350
      py      :     0.701651
      dz2     :     0.018433  d :     0.150102
      dxz     :     0.015018
      dyz     :     0.033752
      dx2y2   :     0.032726
      dxy     :     0.050173
  1 C s       :     3.230284  s :     3.230284
      pz      :     1.009043  p :     3.001598
      px      :     0.932009
      py      :     1.060546
      dz2     :     0.010642  d :     0.056759
      dxz     :     0.012906
      dyz     :     0.009899
      dx2y2   :     0.014627
      dxy     :     0.008686
  2 H s       :     0.704566  s :     0.704566
      pz      :     0.011164  p :     0.027002
      px      :     0.007509
      py      :     0.008328
  3 H s       :     0.695904  s :     0.695904
      pz      :     0.005670  p :     0.026665
      px      :     0.007364
      py      :     0.013631
  4 O s       :     3.815419  s :     3.815419
      pz      :     1.619282  p :     4.664159
      px      :     1.421246
      py      :     1.623631
      dz2     :     0.006826  d :     0.047000
      dxz     :     0.008638
      dyz     :     0.009922
      dx2y2   :     0.008850
      dxy     :     0.012764
  5 C s       :     3.223061  s :     3.223061
      pz      :     0.955742  p :     2.950696
      px      :     0.970885
      py      :     1.024069
      dz2     :     0.010206  d :     0.058405
      dxz     :     0.014801
      dyz     :     0.010290
      dx2y2   :     0.015923
      dxy     :     0.007185
  6 H s       :     0.835396  s :     0.835396
      pz      :     0.007427  p :     0.014910
      px      :     0.003240
      py      :     0.004243
  7 H s       :     0.844938  s :     0.844938
      pz      :     0.002983  p :     0.014587
      px      :     0.002955
      py      :     0.008648
  8 C s       :     3.177033  s :     3.177033
      pz      :     0.897102  p :     2.788413
      px      :     0.838544
      py      :     1.052767
      dz2     :     0.016907  d :     0.079119
      dxz     :     0.018424
      dyz     :     0.012414
      dx2y2   :     0.022427
      dxy     :     0.008948
  9 H s       :     0.845126  s :     0.845126
      pz      :     0.003160  p :     0.014614
      px      :     0.002936
      py      :     0.008518
 10 H s       :     0.843601  s :     0.843601
      pz      :     0.005469  p :     0.014650
      px      :     0.005988
      py      :     0.003193
 11 C s       :     2.969459  s :     2.969459
      pz      :     0.742412  p :     2.325316
      px      :     0.827219
      py      :     0.755685
      dz2     :     0.033981  d :     0.147301
      dxz     :     0.051607
      dyz     :     0.024076
      dx2y2   :     0.016580
      dxy     :     0.021058
 12 O s       :     3.842200  s :     3.842200
      pz      :     1.386711  p :     4.532429
      px      :     1.757810
      py      :     1.387908
      dz2     :     0.014762  d :     0.051703
      dxz     :     0.010847
      dyz     :     0.013037
      dx2y2   :     0.006873
      dxy     :     0.006183
 13 N s       :     3.583295  s :     3.583295
      pz      :     1.211718  p :     3.993862
      px      :     1.569538
      py      :     1.212606
      dz2     :     0.009846  d :     0.053579
[...]
 17 O s       :     3.861402  s :     3.861402
      pz      :     1.427076  p :     4.547670
      px      :     1.746757
      py      :     1.373837
      dz2     :     0.010285  d :     0.050777
      dxz     :     0.006421
      dyz     :     0.012428
      dx2y2   :     0.011310
      dxy     :     0.010332
 18 H s       :     0.615258  s :     0.615258
      pz      :     0.010600  p :     0.040745
      px      :     0.018504
      py      :     0.011641


                     *******************************
                     * LOEWDIN POPULATION ANALYSIS *
                     *******************************

----------------------
LOEWDIN ATOMIC CHARGES
----------------------
   0 C :    0.169121
   1 C :   -0.145738
   2 H :    0.132079
   3 H :    0.136361
   4 O :   -0.172957
   5 C :   -0.116092
   6 H :    0.093995
   7 H :    0.089786
   8 C :   -0.047362
   9 H :    0.080949
  10 H :    0.080218
  11 C :    0.142988
  12 O :   -0.223123
  13 N :   -0.255347
  14 H :    0.186871
  15 O :   -0.179912
  16 H :    0.082482
  17 O :   -0.242970
  18 H :    0.188652

-------------------------------
LOEWDIN REDUCED ORBITAL CHARGES
-------------------------------
  0 C s       :     2.849699  s :     2.849699
      pz      :     0.845034  p :     2.673171
      px      :     0.897149
      py      :     0.930988
      dz2     :     0.039054  d :     0.308008
      dxz     :     0.045673
      dyz     :     0.049777
      dx2y2   :     0.067017
      dxy     :     0.106487
  1 C s       :     2.895108  s :     2.895108
      pz      :     1.060228  p :     3.149440
      px      :     1.014730
      py      :     1.074482
      dz2     :     0.021590  d :     0.101189
      dxz     :     0.022577
      dyz     :     0.011773
      dx2y2   :     0.026229
      dxy     :     0.019019
  2 H s       :     0.783977  s :     0.783977
      pz      :     0.036123  p :     0.083944
      px      :     0.023434
      py      :     0.024387
  3 H s       :     0.778772  s :     0.778772
      pz      :     0.017130  p :     0.084867
      px      :     0.022121
      py      :     0.045616
  4 O s       :     3.481144  s :     3.481144
      pz      :     1.666257  p :     4.619859
      px      :     1.313163
      py      :     1.640439
      dz2     :     0.009535  d :     0.071955
      dxz     :     0.014261
      dyz     :     0.010670
      dx2y2   :     0.013304
      dxy     :     0.024184
  5 C s       :     2.890362  s :     2.890362
      pz      :     1.027294  p :     3.122417
      px      :     1.023897
      py      :     1.071227
      dz2     :     0.018404  d :     0.103312
      dxz     :     0.027396
      dyz     :     0.016867
      dx2y2   :     0.028374
      dxy     :     0.012270
  6 H s       :     0.860892  s :     0.860892
      pz      :     0.026307  p :     0.045112
      px      :     0.008764
      py      :     0.010042
  7 H s       :     0.864573  s :     0.864573
      pz      :     0.008275  p :     0.045641
      px      :     0.008287
      py      :     0.029078
  8 C s       :     2.872058  s :     2.872058
      pz      :     0.988771  p :     3.022510
      px      :     0.970448
      py      :     1.063291
      dz2     :     0.032127  d :     0.152794
      dxz     :     0.038632
      dyz     :     0.023133
      dx2y2   :     0.038687
      dxy     :     0.020214
  9 H s       :     0.873033  s :     0.873033
      pz      :     0.009103  p :     0.046019
      px      :     0.008177
      py      :     0.028739
 10 H s       :     0.874425  s :     0.874425
      pz      :     0.018813  p :     0.045357
      px      :     0.017568
      py      :     0.008976
 11 C s       :     2.861470  s :     2.861470
      pz      :     0.934685  p :     2.690060
      px      :     0.938351
      py      :     0.817024
      dz2     :     0.073741  d :     0.305483
      dxz     :     0.113179
      dyz     :     0.051011
      dx2y2   :     0.028660
      dxy     :     0.038892
 12 O s       :     3.560948  s :     3.560948
      pz      :     1.454794  p :     4.583302
      px      :     1.731553
      py      :     1.396955
      dz2     :     0.024680  d :     0.078874
      dxz     :     0.016575
      dyz     :     0.022331
      dx2y2   :     0.007878
      dxy     :     0.007410
 13 N s       :     3.194060  s :     3.194060
      pz      :     1.208152  p :     3.978482
      px      :     1.523945
      py      :     1.246384
      dz2     :     0.014351  d :     0.082806
      dxz     :     0.021028
      dyz     :     0.019376
      dx2y2   :     0.019138
      dxy     :     0.008912
 14 H s       :     0.692871  s :     0.692871
      pz      :     0.040588  p :     0.120257
      px      :     0.041034
      py      :     0.038636
 15 O s       :     3.481575  s :     3.481575
      pz      :     1.625235  p :     4.626432
      px      :     1.284396
      py      :     1.716800
      dz2     :     0.012674  d :     0.071906
      dxz     :     0.024709
      dyz     :     0.010246
      dx2y2   :     0.012052
      dxy     :     0.012225
 16 H s       :     0.873192  s :     0.873192
      pz      :     0.009752  p :     0.044326
      px      :     0.007527
      py      :     0.027047
 17 O s       :     3.559706  s :     3.559706
      pz      :     1.440588  p :     4.604983
      px      :     1.725161
      py      :     1.439235
      dz2     :     0.012573  d :     0.078281
      dxz     :     0.007836
      dyz     :     0.023043
      dx2y2   :     0.019922
      dxy     :     0.014907
 18 H s       :     0.690801  s :     0.690801
      pz      :     0.032074  p :     0.120547
      px      :     0.054449
      py      :     0.034024


                      *****************************
                      * MAYER POPULATION ANALYSIS *
                      *****************************

  NA   - Mulliken gross atomic population
  ZA   - Total nuclear charge
  QA   - Mulliken gross atomic charge
  VA   - Mayer's total valence
  BVA  - Mayer's bonded valence
  FA   - Mayer's free valence

  ATOM       NA         ZA         QA         VA         BVA        FA
  0 C      5.3796     6.0000     0.6204     3.9706     3.6993     0.2714
  1 C      6.2903     6.0000    -0.2903     3.8924     3.6295     0.2629
  2 H      0.7352     1.0000     0.2648     0.9190     0.8732     0.0458
  3 H      0.7244     1.0000     0.2756     0.9199     0.8744     0.0455
  4 O      8.5265     8.0000    -0.5265     2.2148     1.8641     0.3506
  5 C      6.2343     6.0000    -0.2343     3.9135     3.6457     0.2678
  6 H      0.8478     1.0000     0.1522     0.9540     0.9063     0.0478
  7 H      0.8479     1.0000     0.1521     0.9586     0.9118     0.0468
  8 C      6.0436     6.0000    -0.0436     3.9041     3.6302     0.2739
  9 H      0.8558     1.0000     0.1442     0.9655     0.9179     0.0476
 10 H      0.8597     1.0000     0.1403     0.9602     0.9126     0.0476
 11 C      5.4413     6.0000     0.5587     3.9635     3.6842     0.2793
 12 O      8.4336     8.0000    -0.4336     2.3300     1.9407     0.3893
 13 N      7.6222     7.0000    -0.6222     3.0469     2.7219     0.3250
 14 H      0.6606     1.0000     0.3394     0.9043     0.8604     0.0439
 15 O      8.5268     8.0000    -0.5268     2.1918     1.8396     0.3521
 16 H      0.8546     1.0000     0.1454     0.9519     0.9035     0.0484
 17 O      8.4598     8.0000    -0.4598     2.2976     1.9099     0.3877
 18 H      0.6560     1.0000     0.3440     0.9006     0.8570     0.0436

  Mayer bond orders larger than 0.100000
B(  0-C ,  1-C ) :   0.9064 B(  0-C ,  4-O ) :   1.0047 B(  0-C , 17-O ) :   1.7780 
B(  1-C ,  5-C ) :   0.9195 B(  1-C ,  6-H ) :   0.9124 B(  1-C ,  7-H ) :   0.9117 
B(  2-H , 13-N ) :   0.8700 B(  3-H , 13-N ) :   0.8550 B(  4-O , 14-H ) :   0.8149 
B(  5-C ,  8-C ) :   0.9216 B(  5-C ,  9-H ) :   0.9111 B(  5-C , 10-H ) :   0.9207 
B(  8-C , 11-C ) :   0.8715 B(  8-C , 13-N ) :   0.9733 B(  8-C , 16-H ) :   0.9057 
B( 11-C , 12-O ) :   1.8269 B( 11-C , 15-O ) :   0.9803 B( 15-O , 18-H ) :   0.8120 



----------------------------------
MP2 DERIVATIVE INTEGRAL GENERATION
----------------------------------

Input SCF Electron Density              ... 3.scfp
Input Correlated Electron Density       ... 3.pmp2re
Input Energy Weighted Density           ... 3.wmp2.tmp
Input Wavefunction Amplitudes           ... 3.mp2tsaa.tmp

Nuclear repulsion gradient              ... done (  0.0 sec)
HCore & Overlap gradient  (SHARK)       ... done (  0.1 sec)
Analytic two-electron gradient terms    ... 
  Batch handling in the gradient evaluation:
  General contraction                   ... not used
  Memory available                      ... 4082.5 MB
  Memory per occupied orbital in Q2     ...    7.6 MB
  Memory per occupied orbital in Q3     ...    0.0 MB
  Total memory requirement per |i>      ...    7.6 MB
  Number of orbitals treated per batch  ...     29
  Number of batches to be done          ...      1
done ( 20.9 sec)

---------------------------------------
MP2 TOTAL ENERGY:     -550.090874512 Eh
---------------------------------------

The final MP2 gradient
  0:   0.00000717  -0.00001151  -0.00001004
  1:  -0.00000990   0.00001010  -0.00000063
  2:  -0.00000626  -0.00000986   0.00000900
  3:   0.00000248  -0.00000146   0.00000219
  4:  -0.00001420   0.00002267  -0.00000584
  5:   0.00000887   0.00001368   0.00000102
  6:   0.00000252  -0.00000128   0.00000033
  7:  -0.00000199  -0.00000147   0.00000349
  8:  -0.00003780  -0.00000099  -0.00001577
  9:   0.00000323  -0.00000191   0.00000563
 10:   0.00000275  -0.00001681  -0.00000039
 11:   0.00000700   0.00001193  -0.00000174
 12:   0.00000294  -0.00001234   0.00000836
 13:   0.00001362   0.00000990  -0.00001034
 14:   0.00000725  -0.00000990   0.00000261
 15:   0.00000180   0.00001003  -0.00000325
 16:   0.00001707  -0.00000190   0.00000423
 17:  -0.00000523  -0.00000614   0.00001076
 18:  -0.00000132  -0.00000273   0.00000040

-----------------------------------
NORM OF THE MP2 GRADIENT:  0.000073
-----------------------------------

Maximum memory used throughout the entire MP2-calculation: 759.5 MB

-------------------------   --------------------
FINAL SINGLE POINT ENERGY      -550.090874512458
-------------------------   --------------------

                                *** OPTIMIZATION RUN DONE ***


------------------------------------------------------------------------------
                              ORCA PROPERTY CALCULATIONS
------------------------------------------------------------------------------

GBWName                                 ... 3.gbw
Number of atoms                         ...     19
Number of basis functions               ...    185
Max core memory                         ...   4096 MB

Electric properties:
Dipole moment                           ... YES
Quadrupole moment                       ...  NO
Static polarizability (Dipole/Dipole)   ...  NO
Static polarizability (Dipole/Quad.)    ...  NO
Static polarizability (Quad./Quad.)     ...  NO
Static polarizability (Velocity)        ...  NO
Static hyperpolarizability              ...  NO

Atomic electric properties:
Dipole moment                           ...  NO
Quadrupole moment                       ...  NO
Static polarizability                   ...  NO

Choice of electric origin               ... Center of mass
Position of electric origin             ...    -2.362885     1.139281     0.652726

General magnetic properties:
Magnetizability                         ...  NO

EPR properties:
g-Tensor (aka g-matrix)                 ...  NO
Zero-Field splitting spin-orbit         ...  NO
Zero-field splitting spin-spin          ...  NO
Hyperfine couplings                     ...  NO (   0 nuclei)
Quadrupole couplings                    ...  NO (   0 nuclei)
Contact density                         ...  NO (   0 nuclei)

NMR properties:
Chemical shifts                         ...  NO (   0 nuclei)
Spin-rotation constants                 ...  NO (   0 nuclei)
Spin-spin couplings                     ...  NO (   0 nuclei,    0 pairs)

Choice of magnetic origin               ... GIAO
Position of magnetic origin             ...     0.000000     0.000000     0.000000

Properties with geometric perturbations:
SCF Hessian                             ...  NO
IR spectrum                             ...  NO
VCD spectrum                            ...  NO
X-ray spectroscopy properties:
SCF XES/XAS/RIXS spectra                ...  NO

SCF SOC stabilization energy            ...  NO
Diagonal Born-Oppenheimer correction    ...  NO

-------------
DIPOLE MOMENT
-------------

Method             : SCF
Type of density    : Electron Density
Multiplicity       :   1
Irrep              :   0
Energy             :  -548.5382884032961783 Eh
Basis              : AO
                                X                 Y                 Z
Electronic contribution:      0.579318947      -1.665851976       2.197410195
Nuclear contribution   :     -0.272688263       2.327380439      -2.878785214
                        -----------------------------------------
Total Dipole Moment    :      0.306630684       0.661528463      -0.681375019
                        -----------------------------------------
Magnitude (a.u.)       :      0.997955009
Magnitude (Debye)      :      2.536600046



--------------------
Rotational spectrum 
--------------------
 
Rotational constants in cm-1:             0.099265             0.022650             0.021005 
Rotational constants in MHz :          2975.896057           679.038145           629.720885 

Dipole components along the rotational axes: 
x,y,z [a.u.] :    -0.163073    -0.858107    -0.482674 
x,y,z [Debye]:    -0.414497    -2.181134    -1.226860 

 

-------------
DIPOLE MOMENT
-------------

Method             : MP2
Type of density    : Electron Density
Multiplicity       :   1
Level              : Unrelaxed density
Irrep              :   0
Energy             :     0.0000000000000000 Eh
Basis              : AO
                                X                 Y                 Z
Electronic contribution:      0.579142634      -1.709943486       2.247488010
Nuclear contribution   :     -0.272688263       2.327380439      -2.878785214
                        -----------------------------------------
Total Dipole Moment    :      0.306454371       0.617436953      -0.631297204
                        -----------------------------------------
Magnitude (a.u.)       :      0.934707886
Magnitude (Debye)      :      2.375838635



--------------------
Rotational spectrum 
--------------------
 
Rotational constants in cm-1:             0.099265             0.022650             0.021005 
Rotational constants in MHz :          2975.896057           679.038145           629.720885 

Dipole components along the rotational axes: 
x,y,z [a.u.] :    -0.172899    -0.801571    -0.448629 
x,y,z [Debye]:    -0.439475    -2.037433    -1.140324 

 

-------------
DIPOLE MOMENT
-------------

Method             : MP2
Type of density    : Electron Density
Multiplicity       :   1
Level              : Relaxed density
Irrep              :   0
Energy             :     0.0000000000000000 Eh
Basis              : AO
                                X                 Y                 Z
Electronic contribution:      0.585583752      -1.864080919       2.439402111
Nuclear contribution   :     -0.272688263       2.327380439      -2.878785214
                        -----------------------------------------
Total Dipole Moment    :      0.312895488       0.463299520      -0.439383103
                        -----------------------------------------
Magnitude (a.u.)       :      0.711060858
Magnitude (Debye)      :      1.807373066



--------------------
Rotational spectrum 
--------------------
 
Rotational constants in cm-1:             0.099265             0.022650             0.021005 
Rotational constants in MHz :          2975.896057           679.038145           629.720885 

Dipole components along the rotational axes: 
x,y,z [a.u.] :    -0.218595    -0.589762    -0.331670 
x,y,z [Debye]:    -0.555624    -1.499055    -0.843039 

 

Dipole moment calculation done in   0.0 sec 

Maximum memory used throughout the entire PROP-calculation: 9.9 MB

--------------------------------
SUGGESTED CITATIONS FOR THIS RUN
--------------------------------

Below you find a list of papers that are relevant to this ORCA run
We neither can nor want to force you to cite these papers, but we appreciate if you do
You receive ORCA, which is the product of decades of hard work by many enthusiastic individuals, for free
The only thing we kindly ask in return is that you cite our papers,
We deeply appreciate it, if you show your appreciation for ORCA by not just citing the generic ORCA reference.

Please note that relegating all ORCA citations to the supporting information does *not* help us.
SI sections are not indexed - citations you put there will not count into any citation statistics
But we need these citations in order to attract the funding resources that allow us to do what we are doing

Therefore, if you are a happy ORCA user, please consider citing a few of the papers listed below in the main body of your paper

In addition to the list printed below, the program has created the file 3.bibtex that contains the list in bibtex format
You can import this file easily into all common literature databanks and citation aid programs


List of essential papers. We consider these as the minimum necessary citations

  1. Neese, F.
     Software update: the ORCA program system, version 6.0
     WIRES Comput. Molec. Sci. 2025 15(1), e70019
     doi.org/10.1002/wcms.7019

List of papers to cite with high priority. The work reported in these papers was absolutely
necessary for this run to complete.
Our perspective: the developers of density functionals and basis sets usually get cited in chemistry papers
Good! But without the algorithms to do something with them, the functionals or basis sets would not do anything.
Hence, in our opinion, the algorithm design and method developments papers are equally worthy of getting cited

  1. Neese, F.
     The SHARK Integral Generation and Digestion System
     J. Comp. Chem. 2022 44(3), 381
     doi.org/10.1002/jcc.26942

List of suggested additional citations. These are papers that are important in the 'surrounding' of 
of this run, or papers that preceded the highly important papers. If you like your results we are grateful for a citation.

  1. Neese, F.
     The ORCA program system
     WIRES Comput. Molec. Sci. 2012 2(1), 73-78
     doi.org/10.1002/wcms.81
  2. Neese, F.
     Software update: the ORCA program system, version 4.0
     WIRES Comput. Molec. Sci. 2018 8(1), 1-6
     doi.org/10.1002/wcms.1327
  3. Neese, F.; Wennmohs, F.; Becker, U.; Riplinger, C.
     The ORCA quantum chemistry program package
     J. Chem. Phys. 2020 152(22), 224108
     doi.org/10.1063/5.0004608
  4. Neese, F.
     Software update: The ORCA program system—Version 5.0
     WIRES Comput. Molec. Sci. 2022 12(1), e1606
     doi.org/10.1002/wcms.1606

List of optional additional citations

  1. Neese, F.
     Approximate second-order SCF convergence for spin unrestricted wavefunctions
     Chem. Phys. Lett. 2000 325(1-3), 93-98
     doi.org/10.1016/s0009-2614(00)00662-x

Timings for individual modules:

Sum of individual times          ...     1117.413 sec (=  18.624 min)
Startup calculation              ...        6.348 sec (=   0.106 min)   0.6 %
SCF iterations                   ...      215.035 sec (=   3.584 min)  19.2 %
Property calculations            ...        0.043 sec (=   0.001 min)   0.0 %
MP2 module                       ...      895.967 sec (=  14.933 min)  80.2 %
Geometry relaxation              ...        0.020 sec (=   0.000 min)   0.0 %
                             ****ORCA TERMINATED NORMALLY****
TOTAL RUN TIME: 0 days 0 hours 18 minutes 37 seconds 727 msec
