
                                 *****************
                                 * O   R   C   A *
                                 *****************

                                            #,                                       
                                            ###                                      
                                            ####                                     
                                            #####                                    
                                            ######                                   
                                           ########,                                 
                                     ,,################,,,,,                         
                               ,,#################################,,                 
                          ,,##########################################,,             
                       ,#########################################, ''#####,          
                    ,#############################################,,   '####,        
                  ,##################################################,,,,####,       
                ,###########''''           ''''###############################       
              ,#####''   ,,,,##########,,,,          '''####'''          '####       
            ,##' ,,,,###########################,,,                        '##       
           ' ,,###''''                  '''############,,,                           
         ,,##''                                '''############,,,,        ,,,,,,###''
      ,#''                                            '''#######################'''  
     '                                                          ''''####''''         
             ,#######,   #######,   ,#######,      ##                                
            ,#'     '#,  ##    ##  ,#'     '#,    #''#        ,####,    ,#,          
            ##       ##  ##   ,#'  ##            #'  '#       #'       ,# #          
            ##       ##  #######   ##           ,######,      #####,      #          
            '#,     ,#'  ##    ##  '#,     ,#' ,#      #,     #,   #      #          
             '#######'   ##     ##  '#######'  #'      '#     '####' #    #          



                #########################################################
                #                        -***-                          #
                #          Department of theory and spectroscopy        #
                #                                                       #
                #                      Frank Neese                      #
                #                                                       #
                #     Directorship, Architecture, Infrastructure        #
                #                    SHARK, DRIVERS                     #
                #        Core code/Algorithms in most modules           #
                #                                                       #
                #        Max Planck Institute fuer Kohlenforschung      #
                #                Kaiser Wilhelm Platz 1                 #
                #                 D-45470 Muelheim/Ruhr                 #
                #                      Germany                          #
                #                                                       #
                #                  All rights reserved                  #
                #                        -***-                          #
                #########################################################


                         Program Version 6.1.0  -  RELEASE   -
                                (GIT: $679e74b$)
                          ($2025-06-10 18:02:51 +0200$)


 With contributions from (in alphabetic order):
[Max-Planck-Institut fuer Kohlenforschung]                               
  Daniel Aravena         : Magnetic Suceptibility                        
  Michael Atanasov       : Ab Initio Ligand Field Theory (pilot matlab implementation)
  Alexander A. Auer      : GIAO ZORA, VPT2 properties, NMR spectrum      
  Ute Becker             : All parallelization in ORCA, NUMFREQ, NUMCALC 
  Giovanni Bistoni       : ED, misc. LED, open-shell LED, HFLD           
  Dmytro Bykov           : pre 5.0 version of the SCF Hessian            
  Marcos Casanova-Páez   : Triplet and SCS-CIS(D). UHF-(DLPNO)-IP/EA/STEOM-CCSD. UHF-CVS-IP/STEOM-CCSD   
  Vijay G. Chilkuri      : MRCI spin determinant printing, contributions to CSF-ICE 
  Pauline Colinet        : FMM embedding                                 
  Dipayan Datta          : RHF DLPNO-CCSD density                        
  Achintya Kumar Dutta   : EOM-CC, STEOM-CC                              
  Nicolas Foglia         : Exact transition moments, OPA infrastructure, MCD improvements    
  Dmitry Ganyushin       : Spin-Orbit,Spin-Spin,Magnetic field MRCI      
  Miquel Garcia-Rates    : C-PCM and meta-GGA Hessian, CCSD/C-PCM, Gaussian charge scheme 
  Tiago L. C. Gouveia    : GS-ROHF, GS-ROCIS                             
  Yang Guo               : DLPNO-NEVPT2, F12-NEVPT2, CIM, IAO-localization        
  Andreas Hansen         : Spin unrestricted coupled pair/coupled cluster methods 
  Ingolf Harden          : AUTO-CI MPn and infrastructure                
  Benjamin Helmich-Paris : MC-RPA, TRAH-(SCF,CASSCF), AVAS, COSX integrals, SCF dyn. polar., MC-PDFT, srDFT 
  Lee Huntington         : MR-EOM, pCC                                   
  Robert Izsak           : Overlap fitted RIJCOSX, COSX-SCS-MP3, EOM     
  Riya Kayal             : Wick's Theorem for AUTO-CI, AUTO-CI UHF-CCSDT 
  Emily Kempfer          : AUTO-CI RHF CISDT and CCSDT, approximate NEVPT4
  Christian Kollmar      : KDIIS, OOCD, Brueckner-CCSD(T), CCSD density, CASPT2, CASPT2-K, improved NEVPT2 
  Axel Koslowski         : Symmetry handling                             
  Simone Kossmann        : meta-GGA functionals, TD-DFT gradient, OOMP2, (MP2 Hessian; deprecated post 5.0) 
  Lucas Lang             : DCDCAS, Hyperfine gauge corrections, ICE-SOC+SSC
  Marvin Lechner         : AUTO-CI (C++ implementation), FIC-MRCC        
  Spencer Leger          : CASSCF response                               
  Dagmar Lenk            : GEPOL surface, SMD, ORCA-2-JSON               
  Dimitrios Liakos       : Extrapolation schemes; Compound Job, Property file
  Dimitrios Manganas     : Further ROCIS development; embedding schemes. LFT, Crystal Embedding 
  Dimitrios Pantazis     : SARC Basis sets                               
  Anastasios Papadopoulos: AUTO-CI, single reference methods and gradients 
  Taras Petrenko         : pre 6.0 DFT Hessian and TD-DFT gradient,  ECA, NRVS 
  Petra Pikulova         : Analytic Raman intensities                    
  Peter Pinski           : DLPNO-MP2, DLPNO-MP2 Gradient                 
  Shashank Vittal Rao    : ES-AILFT, MagRelax                            
  Christoph Reimann      : Effective Core Potentials                     
  Marius Retegan         : Local ZFS, SOC                                
  Christoph Riplinger    : Optimizer, TS searches, QM/MM, DLPNO-CCSD(T), (RO)-DLPNO pert. Triples 
  Michael Roemelt        : Original ROCIS implementation, recursive CI coupling coefficients
  Masaaki Saitow         : Open-shell DLPNO-CCSD energy and density      
  Barbara Sandhoefer     : DKH picture change effects                    
  Yorick L. A. Schmerwitz: GMF and freeze-and-release deltaSCF, NEB S-IDPP initial path                    
  Kantharuban Sivalingam : CASSCF convergence/infrastructure, NEVPT2, NEVPT3, NEVPT4(SD), FIC-MRCI and CEPA variants
  Bernardo de Souza      : ESD, SOC TD-DFT                               
  Georgi L. Stoychev     : AutoAux, RI-MP2 NMR, DLPNO-MP2 response, X2C  
  Van Anh Tran           : RI-MP2 g-tensors                              
  Willem Van den Heuvel  : Paramagnetic NMR                              
  Zikuan Wang            : NOTCH, Electric field optimization            
  Frank Wennmohs         : Technical directorship and infrastructure     
  Hang Xu                : AUTO-CI-Response properties                   
                                                                         
[FACCTs GmbH]                                                            
  Markus Bursch, Nicolas Foglia, Miquel Garcia-Rates, Ingolf Harden, Hagen Neugebauer, Anastasios Papadopoulos, 
  Christoph Riplinger, Bernardo de Souza, Georgi L. Stoychev                                                    
                                                                 
  APM, various basis sets, CI-OPT, improved COSX, DLPNO-Multilevel,           
  DOCKER, DRACO, updates on ESD, Fragmentator, GOAT, IRC, LR-CPCM, L-BFGS, MBIS, meta-GGA TD-DFT gradient, ML-optimized integration grids, 
  MM, NACMEs, nearIR, NEB, NEB-TS, NL-DFT gradient (VV10), 2- and 3-layer-ONIOM, interface openCOSMO-RS, QMMM,   
  Crystal-QMMM, RESP, rigid body optimization, SF, symmetry and pop. for TD-DFT, various functionals, SOLVATOR                                   
                                                                         
[Other institutions]                                                     
  V. Asgeirsson          : NEB                                           
  Christoph Bannwarth    : sTDA-DFT, sTD-DFT, PBEh-3c, B97-3c, D3        
  Giovanni Bistoni       : ETS/NOCV, ADLD/ADEX, COVALED                  
  Martin Brehm           : Molecular dynamics                            
  Ronald Cardenas        : ETS/NOCV                                      
  Martina Colucci        : COVALED                                       
  Sebastian Ehlert       : rSCAN, r2SCAN, r2SCAN-3c, D4, dhf basis sets  
  Marvin Friede          : D4 for Fr, Ra, Ac-Lr                          
  Lars Goerigk           : TD-DFT with DH, B97 family of functionals     
  Stefan Grimme          : VdW corrections, initial TS optimization, DFT functionals, gCP, sTDA/sTD-DF 
  Waldemar Hujo          : DFT-NL                                        
  H. Jonsson             : NEB                                           
  Holger Kruse           : gCP                                           
  Marcel Mueller         : wB97X-3c, vDZP basis set                      
  Hagen Neugebauer       : wr2SCAN, Native XTB                           
  Gianluca Regni         : ADLD/ADEX                                     
  Tobias Risthaus        : pre 6.0 range-separated hybrid DFT and stability analysis
  Lukas Wittmann         : regularized MP2, r2SCAN double-hybrids, wr2SCAN        
                                                                         
We gratefully acknowledge several colleagues who have allowed us to      
interface, adapt or use parts of their codes:                            
  Ed Valeev, F. Pavosevic, A. Kumar             : LibInt (2-el integral package), F12 methods 
  Garnet Chan, S. Sharma, J. Yang, R. Olivares  : DMRG                   
  Ulf Ekstrom                                   : XCFun DFT Library      
  Mihaly Kallay                                 : mrcc  (arbitrary order and MRCC methods)
  Frank Weinhold                                : gennbo (NPA and NBO analysis)           
  Simon Mueller                                 : openCOSMO-RS                            
  Christopher J. Cramer and Donald G. Truhlar   : smd solvation model                     
  S Lehtola, MJT Oliveira, MAL Marques          : LibXC Library                           
  Liviu Ungur et al                             : ANISO software                          


 Your calculation uses the libint2 library for the computation of 2-el integrals
 For citations please refer to: http://libint.valeyev.net

 Your ORCA version has been built with support for libXC version: 7.0.0
 For citations please refer to: https://libxc.gitlab.io

 This ORCA versions uses:
   CBLAS   interface :  Fast vector & matrix operations
   LAPACKE interface :  Fast linear algebra routines
   SCALAPACK package :  Parallel linear algebra routines
   Shared memory     :  Shared parallel matrices
   BLAS/LAPACK       :  OpenBLAS 0.3.29  USE64BITINT DYNAMIC_ARCH NO_AFFINITY Haswell SINGLE_THREADED
        Core in use  :  Haswell
   Copyright (c) 2011-2014, The OpenBLAS Project


  ***********************************
  * Starting time: Thu Aug 14 12:14:55 2025
  * Host name:     CHEMLAB02
  * Process ID:    1769937
  * Working dir.:  /home/vivek/mm-project/vivek/MP2/d/4
  ***********************************



***************************************
The coordinates will be read from file: /home/vivek/mm-project/vivek/xtb-goat/d/D_CONF/4.xyz
***************************************


================================================================================

----- Orbital basis set information -----
Your calculation utilizes the basis: 6-31G**
   H-He, Li-Ne : W. J. Hehre, R. Ditchfield and J.A. Pople, J. Chem. Phys. 56, 2257 (1972).
                 Note: He and Ne are unpublished basis sets taken from the Gaussian program.
                 Note: Li and B from J. D. Dill and J. A. Pople, J. Chem. Phys. 62, 2921 (1975).
   Na - Ar     : M. M. Francl, W. J. Pietro, W. J. Hehre, J. S. Binkley, M. S. Gordon, 
                 D. J. DeFrees and J. A. Pople, J. Chem. Phys. 77, 3654 (1982).
   K - Zn      : V. A. Rassolov, J. A. Pople, M. A. Ratner, and T. L. Windus, J. Chem. Phys. 109, 1223 (1998).

================================================================================
                                        WARNINGS
                       Please study these warnings very carefully!
================================================================================


WARNING: No MP2 level density has been requested!
         To calculate MP2 level properties use
         %mp2 Density relaxed end
         or
         %mp2 Density unrelaxed end

WARNING: Post HF methods need fully converged wavefunctions
  ===> : Setting SCFConvForced true
         You can overwrite this default with %scf ConvForced false 


================================================================================
                                       INPUT FILE
================================================================================
NAME = 4.inp
|  1> ! MP2 6-31G** 
|  2> 
|  3> * xyzfile 0 1 /home/vivek/mm-project/vivek/xtb-goat/d/D_CONF/4.xyz
|  4> 
|  5>                          ****END OF INPUT****
================================================================================

                       ****************************
                       * Single Point Calculation *
                       ****************************

---------------------------------
CARTESIAN COORDINATES (ANGSTROEM)
---------------------------------
  C     -4.174469    1.174778    1.285479
  C     -3.872997    1.174080   -0.193953
  O     -2.393195    4.133374    0.858207
  H     -4.385099    4.896165   -0.101319
  O     -5.411787    1.608987    1.543584
  C     -2.712892    2.145206   -0.489931
  H     -3.551689    0.175153   -0.490073
  H     -4.765296    1.469301   -0.742448
  C     -3.060314    3.530728    0.061856
  O     -3.409856    0.850511    2.153981
  N     -1.468273    1.620557    0.020387
  O     -4.189240    4.016574   -0.462470
  H     -1.594764    1.308932    0.980027
  H     -5.582374    1.613857    2.499514
  H     -2.623326    2.254404   -1.580226
  H     -0.764239    2.351716    0.034843

----------------------------
CARTESIAN COORDINATES (A.U.)
----------------------------
  NO LB      ZA    FRAG     MASS         X           Y           Z
   0 C     6.0000    0    12.011   -7.888604    2.220009    2.429203
   1 C     6.0000    0    12.011   -7.318904    2.218690   -0.366517
   2 O     8.0000    0    15.999   -4.522483    7.810945    1.621776
   3 H     1.0000    0     1.008   -8.286636    9.252411   -0.191466
   4 O     8.0000    0    15.999  -10.226795    3.040544    2.916952
   5 C     6.0000    0    12.011   -5.126622    4.053852   -0.925835
   6 H     1.0000    0     1.008   -6.711719    0.330991   -0.926103
   7 H     1.0000    0     1.008   -9.005104    2.776576   -1.403024
   8 C     6.0000    0    12.011   -5.783155    6.672109    0.116891
   9 O     8.0000    0    15.999   -6.443693    1.607233    4.070433
  10 N     7.0000    0    14.007   -2.774634    3.062410    0.038527
  11 O     8.0000    0    15.999   -7.916517    7.590225   -0.873941
  12 H     1.0000    0     1.008   -3.013666    2.473523    1.851983
  13 H     1.0000    0     1.008  -10.549157    3.049748    4.723397
  14 H     1.0000    0     1.008   -4.957368    4.260205   -2.986194
  15 H     1.0000    0     1.008   -1.444203    4.444098    0.065844

--------------------------------
INTERNAL COORDINATES (ANGSTROEM)
--------------------------------
 C      0   0   0     0.000000000000     0.00000000     0.00000000
 C      1   0   0     1.509835245361     0.00000000     0.00000000
 O      2   1   0     3.471926871671    77.74663802     0.00000000
 H      3   2   1     2.338850581350    77.91655748   258.69251648
 O      1   2   3     1.336454301787   111.97790322    98.79639003
 C      2   1   3     1.541600959584   109.76093175    18.67501700
 H      2   1   3     1.090312452795   108.98912321   136.34500538
 H      2   1   3     1.088209445301   109.27086541   257.41749590
 C      3   2   1     1.201001321736    30.07257713   223.47079288
 O      1   2   3     1.201698333953   125.52114041   279.91183786
 N      6   2   1     1.443868636128   110.60529879    70.57119705
 O      4   3   2     0.970809192972    71.65750673   338.72151732
 H     11   6   2     1.016867381425   109.73531515   311.75120423
 H      5   1   2     0.971043426640   110.75628303   180.78549382
 H      6   2   1     1.099404481001   108.31729019   189.28978048
 H     11   6   2     1.015117850654   109.94723354   194.23574766

---------------------------
INTERNAL COORDINATES (A.U.)
---------------------------
 C      0   0   0     0.000000000000     0.00000000     0.00000000
 C      1   0   0     2.853175121073     0.00000000     0.00000000
 O      2   1   0     6.560990944460    77.74663802     0.00000000
 H      3   2   1     4.419787066913    77.91655748   258.69251648
 O      1   2   3     2.525532620878   111.97790322    98.79639003
 C      2   1   3     2.913203621404   109.76093175    18.67501700
 H      2   1   3     2.060391936187   108.98912321   136.34500538
 H      2   1   3     2.056417827966   109.27086541   257.41749590
 C      3   2   1     2.269563584558    30.07257713   223.47079288
 O      1   2   3     2.270880746761   125.52114041   279.91183786
 N      6   2   1     2.728516295640   110.60529879    70.57119705
 O      4   3   2     1.834563503010    71.65750673   338.72151732
 H     11   6   2     1.921600865411   109.73531515   311.75120423
 H      5   1   2     1.835006140494   110.75628303   180.78549382
 H      6   2   1     2.077573379497   108.31729019   189.28978048
 H     11   6   2     1.918294731391   109.94723354   194.23574766

---------------------
BASIS SET INFORMATION
---------------------
There are 4 groups of distinct atoms

 Group   1 Type C   : 10s4p1d contracted to 3s2p1d pattern {631/31/1}
 Group   2 Type O   : 10s4p1d contracted to 3s2p1d pattern {631/31/1}
 Group   3 Type H   : 4s1p contracted to 2s1p pattern {31/1}
 Group   4 Type N   : 10s4p1d contracted to 3s2p1d pattern {631/31/1}

Atom   0C    basis set group =>   1
Atom   1C    basis set group =>   1
Atom   2O    basis set group =>   2
Atom   3H    basis set group =>   3
Atom   4O    basis set group =>   2
Atom   5C    basis set group =>   1
Atom   6H    basis set group =>   3
Atom   7H    basis set group =>   3
Atom   8C    basis set group =>   1
Atom   9O    basis set group =>   2
Atom  10N    basis set group =>   4
Atom  11O    basis set group =>   2
Atom  12H    basis set group =>   3
Atom  13H    basis set group =>   3
Atom  14H    basis set group =>   3
Atom  15H    basis set group =>   3
------------------------------------------------------------------------------
                             ORCA STARTUP CALCULATIONS
------------------------------------------------------------------------------
------------------------------------------------------------------------------
                   ___                                                        
                  /   \      - P O W E R E D   B Y -                         
                 /     \                                                     
                 |  |  |   _    _      __       _____    __    __             
                 |  |  |  | |  | |    /  \     |  _  \  |  |  /  |          
                  \  \/   | |  | |   /    \    | | | |  |  | /  /          
                 / \  \   | |__| |  /  /\  \   | |_| |  |  |/  /          
                |  |  |   |  __  | /  /__\  \  |    /   |      \           
                |  |  |   | |  | | |   __   |  |    \   |  |\   \          
                \     /   | |  | | |  |  |  |  | |\  \  |  | \   \       
                 \___/    |_|  |_| |__|  |__|  |_| \__\ |__|  \__/        
                                                                              
                      - O R C A' S   B I G   F R I E N D -                    
                                      &                                       
                       - I N T E G R A L  F E E D E R -                       
                                                                              
 v1 FN, 2020, v2 2021, v3 2022-2024                                           
------------------------------------------------------------------------------


----------------------
SHARK INTEGRAL PACKAGE
----------------------

Number of atoms                             ...     16
Number of basis functions                   ...    161
Number of shells                            ...     75
Maximum angular momentum                    ...      2
Integral batch strategy                     ... SHARK/LIBINT Hybrid
RI-J (if used) integral strategy            ... SPLIT-RIJ (Revised 2003 algorithm where possible)
Printlevel                                  ...      1
Contraction scheme used                     ... SEGMENTED contraction
Prescreening option                         ... SCHWARTZ
   Thresh                                   ... 1.000e-10
   Tcut                                     ... 1.000e-11
   Tpresel                                  ... 1.000e-11 
Coulomb Range Separation                    ... NOT USED
Exchange Range Separation                   ... NOT USED
Multipole approximations                    ... NOT USED
Finite Nucleus Model                        ... NOT USED
CABS basis                                  ... NOT available
Auxiliary Coulomb fitting basis             ... NOT available
Auxiliary J/K fitting basis                 ... NOT available
Auxiliary Correlation fitting basis         ... NOT available
Auxiliary 'external' fitting basis          ... NOT available

Checking pre-screening integrals            ... done (  0.0 sec) Dimension = 75
   => SHARK Basis and OBASIS are compatible. Storing Pre-screening
Shell pair information
Shell pair cut-off parameter TPreSel        ...   1.0e-11
Total number of shell pairs                 ...      2850
Shell pairs after pre-screening             ...      2633
Total number of primitive shell pairs       ...     14745
Primitive shell pairs kept                  ...      8929
          la=0 lb=0:    780 shell pairs
          la=1 lb=0:    938 shell pairs
          la=1 lb=1:    303 shell pairs
          la=2 lb=0:    348 shell pairs
          la=2 lb=1:    219 shell pairs
          la=2 lb=2:     45 shell pairs

Checking whether 4 symmetric matrices of dimension 161 fit in memory
:Max Core in MB      =   4096.00
 MB in use           =      4.86
 MB left             =   4091.14
 MB needed           =      0.40
 Data fit in memory  = YES
Calculating Nuclear repulsion               ... done (  0.0 sec) ENN=    484.296202712098 Eh

Diagonalization of the overlap matrix:
Smallest eigenvalue                        ... 2.977e-03
Time for diagonalization                   ...    0.001 sec
Threshold for overlap eigenvalues          ... 1.000e-07
Number of eigenvalues below threshold      ... 0
Time for construction of square roots      ...    0.000 sec
Total time needed                          ...    0.002 sec

-------------------
DFT GRID GENERATION
-------------------

General Integration Accuracy     IntAcc      ... 4.388
Radial Grid Type                 RadialGrid  ... OptM3 with GC (2021)
Angular Grid (max. ang.)         AngularGrid ... 4 (Lebedev-302)
Angular grid pruning method      GridPruning ... 4 (adaptive)
Weight generation scheme         WeightScheme... mBecke (2022)
Basis function cutoff            BFCut       ... 1.0000e-10
Integration weight cutoff        WCut        ... 1.0000e-14
Partially contracted basis set               ... off
Rotationally invariant grid construction     ... off
Angular grids for H and He will be reduced by one unit

Total number of grid points                  ...    76915
Total number of batches                      ...     1211
Average number of points per batch           ...       63
Average number of grid points per atom       ...     4807
Grids setup in   0.3 sec
Initializing property integral containers    ... done (  0.0 sec)

SHARK setup successfully completed in   0.3 seconds

Maximum memory used throughout the entire STARTUP-calculation: 30.2 MB
-------------------------------------------------------------------------------
                                 ORCA GUESS
                   Start orbitals & Density for SCF / CASSCF
-------------------------------------------------------------------------------

------------
SCF SETTINGS
------------
Hamiltonian:
 Ab initio Hamiltonian  Method          .... Hartree-Fock(GTOs)


General Settings:
 Integral files         IntName         .... 4
 Hartree-Fock type      HFTyp           .... RHF
 Total Charge           Charge          ....    0
 Multiplicity           Mult            ....    1
 Number of Electrons    NEL             ....   70
 Basis Dimension        Dim             ....  161
 Nuclear Repulsion      ENuc            ....    484.2962027121 Eh

Convergence Acceleration:
 AO-DIIS                CNVDIIS         .... on
   Start iteration      DIISMaxIt       ....    12
   Startup error        DIISStart       ....  0.200000
   # of expansion vecs  DIISMaxEq       ....     5
   Bias factor          DIISBfac        ....   1.050
   Max. coefficient     DIISMaxC        ....  10.000
 MO-DIIS                CNVKDIIS        .... off
 Trust-Rad. Augm. Hess. CNVTRAH         .... auto
   Auto Start mean grad. ratio tolernc. ....  1.125000
   Auto Start start iteration           ....    50
   Auto Start num. interpolation iter.  ....    10
   Max. Number of Micro iterations      ....    24
   Max. Number of Macro iterations      .... Maxiter - #DIIS iter
   Number of Davidson start vectors     ....     2
   Converg. threshold    (grad. norm)   ....   5.000e-05
   Grad. Scal. Fac. for Micro threshold ....   0.100
   Minimum threshold for Micro iter.    ....   1.000e-02
   NR start threshold (gradient norm)   ....   1.000e-04
   Initial trust radius                 ....   0.400
   Minimum AH scaling param. (alpha)    ....   1.000
   Maximum AH scaling param. (alpha)    .... 1000.000
   Quad. conv. algorithm                .... NR
   White noise on init. David. guess    .... on
   Maximum white noise                  ....   0.010
   Pseudo random numbers                .... off
   Inactive MOs                         .... canonical
   Orbital update algorithm             .... Taylor
   Preconditioner                       .... Diag
   Full preconditioner red. dimension   ....   250
 SOSCF                 CNVSOSCF           .... on
   Start iteration     SOSCFMaxIt         ....   150
   Startup grad/error  SOSCFStart         ....  0.003300
   Hessian update      SOSCFHessUp        .... L-BFGS
   Autom. constraints  SOSCFAutoConstrain .... off
 Level Shifting         CNVShift        .... on
   Level shift para.    LevelShift      ....    0.2500
   Turn off err/grad.   ShiftErr        ....    0.0010
 Zerner damping         CNVZerner       .... off
 Static damping         CNVDamp         .... on
   Fraction old density DampFac         ....    0.7000
   Max. Damping (<1)    DampMax         ....    0.9800
   Min. Damping (>=0)   DampMin         ....    0.0000
   Turn off err/grad.   DampErr         ....    0.1000

SCF Procedure:
 Maximum # iterations   MaxIter         ....   125
 SCF integral mode      SCFMode         .... Direct
   Integral package                     .... SHARK and LIBINT hybrid scheme
 Reset frequency        DirectResetFreq ....    20
 Integral Threshold     Thresh          ....  1.000e-10 Eh
 Primitive CutOff       TCut            ....  1.000e-11 Eh

Convergence Tolerance:
 Convergence Check Mode ConvCheckMode   .... Total+1el-Energy
 Convergence forced     ConvForced      .... 1
 Energy Change          TolE            ....  1.000e-06 Eh
 1-El. energy change                    ....  1.000e-03 Eh
 Orbital Gradient       TolG            ....  5.000e-05
 Orbital Rotation angle TolX            ....  5.000e-05
 DIIS Error             TolErr          ....  1.000e-06

------------------------------
INITIAL GUESS: MODEL POTENTIAL
------------------------------
Loading Hartree-Fock densities                     ... done
Calculating cut-offs                               ... done
Initializing the effective Hamiltonian             ... done
Setting up the integral package (SHARK)            ... done
Starting the Coulomb interaction                   ... done (   0.0 sec)
Making the grid                                    ... done (   0.1 sec)
Mapping shells                                     ... done
Starting the XC term evaluation                    ... done (   0.0 sec)
Transforming the Hamiltonian                       ... done (   0.0 sec)
Diagonalizing the Hamiltonian                      ... done (   0.0 sec)
Back transforming the eigenvectors                 ... done (   0.0 sec)
Now organizing SCF variables                       ... done
                      ------------------
                      INITIAL GUESS DONE (   0.2 sec)
                      ------------------
             **** ENERGY FILE WAS UPDATED (4.en.tmp) ****
Finished Guess after   0.2 sec
Maximum memory used throughout the entire GUESS-calculation: 9.6 MB

-------------------------------------------------------------------------------------------
                                      ORCA LEAN-SCF
                              memory conserving SCF solver
-------------------------------------------------------------------------------------------

----------------------------------------D-I-I-S--------------------------------------------
Iteration    Energy (Eh)           Delta-E    RMSDP     MaxDP     DIISErr   Damp  Time(sec)
-------------------------------------------------------------------------------------------
               ***  Starting incremental Fock matrix formation  ***
    1    -509.1249331038387140     0.00e+00  2.74e-03  6.44e-02  2.50e-01  0.700   1.2
    2    -509.2610415416082219    -1.36e-01  1.99e-03  4.62e-02  1.53e-01  0.700   1.1
                               ***Turning on AO-DIIS***
    3    -509.3389298926537663    -7.79e-02  1.06e-03  2.06e-02  8.67e-02  0.700   1.1
    4    -509.3880025179277595    -4.91e-02  2.45e-03  4.66e-02  6.14e-02  0.000   1.1
    5    -509.4980274748185707    -1.10e-01  3.38e-04  6.66e-03  6.61e-03  0.000   1.1
                              *** Initializing SOSCF ***
---------------------------------------S-O-S-C-F--------------------------------------
Iteration    Energy (Eh)           Delta-E    RMSDP     MaxDP     MaxGrad    Time(sec)
--------------------------------------------------------------------------------------
    6    -509.4986327262359396    -6.05e-04  1.66e-04  2.18e-03  3.29e-03     1.1
               *** Restarting incremental Fock matrix formation ***
    7    -509.4987812564240244    -1.49e-04  1.09e-04  2.47e-03  1.90e-03     1.2
    8    -509.4988328214090529    -5.16e-05  1.33e-04  1.82e-03  5.38e-04     1.0
    9    -509.4988511443357879    -1.83e-05  2.60e-05  3.81e-04  2.98e-04     1.0
   10    -509.4988533431550763    -2.20e-06  6.42e-06  9.02e-05  5.31e-05     0.9
   11    -509.4988534843558341    -1.41e-07  3.67e-06  6.47e-05  1.45e-05     0.8
                 **** Energy Check signals convergence ****

               *****************************************************
               *                     SUCCESS                       *
               *           SCF CONVERGED AFTER  11 CYCLES          *
               *****************************************************

             **** ENERGY FILE WAS UPDATED (4.en.tmp) ****

----------------
TOTAL SCF ENERGY
----------------

Total Energy       :       -509.49885351223685 Eh          -13864.16864 eV

Components:
Nuclear Repulsion  :        484.29620271209757 Eh           13178.36965 eV
Electronic Energy  :       -993.79505622433442 Eh          -27042.53830 eV
One Electron Energy:      -1660.11921295054913 Eh          -45174.14039 eV
Two Electron Energy:        666.32415672621471 Eh           18131.60210 eV

Virial components:
Potential Energy   :      -1018.24568734656236 Eh          -27707.87379 eV
Kinetic Energy     :        508.74683383432551 Eh           13843.70515 eV
Virial Ratio       :          2.00147818055641

---------------
SCF CONVERGENCE
---------------

  Last Energy change         ...    1.4120e-07  Tolerance :   1.0000e-06
  Last MAX-Density change    ...    6.4730e-05  Tolerance :   1.0000e-05
  Last RMS-Density change    ...    3.6683e-06  Tolerance :   1.0000e-06
  Last DIIS Error            ...    3.2891e-03  Tolerance :   1.0000e-06
  Last Orbital Gradient      ...    1.4528e-05  Tolerance :   5.0000e-05
  Last Orbital Rotation      ...    5.7726e-05  Tolerance :   5.0000e-05


----------------
ORBITAL ENERGIES
----------------

  NO   OCC          E(Eh)            E(eV) 
   0   2.0000     -20.626755      -561.2825 
   1   2.0000     -20.625250      -561.2416 
   2   2.0000     -20.564868      -559.5985 
   3   2.0000     -20.562478      -559.5335 
   4   2.0000     -15.542726      -422.9391 
   5   2.0000     -11.399720      -310.2022 
   6   2.0000     -11.390111      -309.9407 
   7   2.0000     -11.291116      -307.2469 
   8   2.0000     -11.259282      -306.3806 
   9   2.0000      -1.480822       -40.2952 
  10   2.0000      -1.476019       -40.1645 
  11   2.0000      -1.374149       -37.3925 
  12   2.0000      -1.370701       -37.2987 
  13   2.0000      -1.201760       -32.7015 
  14   2.0000      -1.057086       -28.7648 
  15   2.0000      -0.946114       -25.7451 
  16   2.0000      -0.851167       -23.1614 
  17   2.0000      -0.801678       -21.8148 
  18   2.0000      -0.723189       -19.6790 
  19   2.0000      -0.716546       -19.4982 
  20   2.0000      -0.705226       -19.1902 
  21   2.0000      -0.687863       -18.7177 
  22   2.0000      -0.674835       -18.3632 
  23   2.0000      -0.643746       -17.5172 
  24   2.0000      -0.626879       -17.0582 
  25   2.0000      -0.603404       -16.4194 
  26   2.0000      -0.595922       -16.2159 
  27   2.0000      -0.564501       -15.3608 
  28   2.0000      -0.555247       -15.1090 
  29   2.0000      -0.527549       -14.3553 
  30   2.0000      -0.490017       -13.3340 
  31   2.0000      -0.484711       -13.1897 
  32   2.0000      -0.459105       -12.4929 
  33   2.0000      -0.455051       -12.3826 
  34   2.0000      -0.399856       -10.8806 
  35   0.0000       0.158573         4.3150 
  36   0.0000       0.184826         5.0294 
  37   0.0000       0.213697         5.8150 
  38   0.0000       0.224486         6.1086 
  39   0.0000       0.250419         6.8142 
  40   0.0000       0.285241         7.7618 
  41   0.0000       0.295105         8.0302 
  42   0.0000       0.316720         8.6184 
  43   0.0000       0.346573         9.4307 
  44   0.0000       0.376609        10.2481 
  45   0.0000       0.416999        11.3471 
*Only the first 10 virtual orbitals were printed.

                    ********************************
                    * MULLIKEN POPULATION ANALYSIS *
                    ********************************

-----------------------
MULLIKEN ATOMIC CHARGES
-----------------------
   0 C :    0.781285
   1 C :   -0.307257
   2 O :   -0.572803
   3 H :    0.375877
   4 O :   -0.629202
   5 C :   -0.036786
   6 H :    0.192219
   7 H :    0.185314
   8 C :    0.774866
   9 O :   -0.576897
  10 N :   -0.697007
  11 O :   -0.633014
  12 H :    0.313252
  13 H :    0.373771
  14 H :    0.171532
  15 H :    0.284851
Sum of atomic charges:   -0.0000000

--------------------------------
MULLIKEN REDUCED ORBITAL CHARGES
--------------------------------
  0 C s       :     2.960381  s :     2.960381
      pz      :     0.862253  p :     2.109380
      px      :     0.616718
      py      :     0.630410
      dz2     :     0.045414  d :     0.148954
      dxz     :     0.032877
      dyz     :     0.016357
      dx2y2   :     0.027521
      dxy     :     0.026785

  1 C s       :     3.260508  s :     3.260508
      pz      :     0.893278  p :     3.001865
      px      :     1.038666
      py      :     1.069920
      dz2     :     0.014885  d :     0.044885
      dxz     :     0.008230
      dyz     :     0.003673
      dx2y2   :     0.008327
      dxy     :     0.009769

  2 O s       :     3.876012  s :     3.876012
      pz      :     1.419839  p :     4.663625
      px      :     1.592069
      py      :     1.651718
      dz2     :     0.010582  d :     0.033165
      dxz     :     0.006442
      dyz     :     0.005521
      dx2y2   :     0.003925
      dxy     :     0.006695

  3 H s       :     0.582513  s :     0.582513
      pz      :     0.010333  p :     0.041610
      px      :     0.007706
      py      :     0.023571

  4 O s       :     3.836271  s :     3.836271
      pz      :     1.466762  p :     4.767309
      px      :     1.497375
      py      :     1.803171
      dz2     :     0.011174  d :     0.025622
      dxz     :     0.001919
      dyz     :     0.000599
      dx2y2   :     0.006187
      dxy     :     0.005744

  5 C s       :     3.212966  s :     3.212966
      pz      :     1.073798  p :     2.752395
      px      :     0.821560
      py      :     0.857036
      dz2     :     0.018403  d :     0.071426
      dxz     :     0.010944
      dyz     :     0.007670
      dx2y2   :     0.015762
      dxy     :     0.018647

  6 H s       :     0.794781  s :     0.794781
      pz      :     0.002253  p :     0.013001
      px      :     0.002493
      py      :     0.008254

  7 H s       :     0.801928  s :     0.801928
      pz      :     0.003454  p :     0.012758
      px      :     0.007082
      py      :     0.002222

  8 C s       :     2.949488  s :     2.949488
      pz      :     0.673252  p :     2.129149
      px      :     0.631144
      py      :     0.824753
      dz2     :     0.027129  d :     0.146498
      dxz     :     0.028005
      dyz     :     0.024556
      dx2y2   :     0.039274
      dxy     :     0.027534

  9 O s       :     3.877359  s :     3.877359
      pz      :     1.582727  p :     4.666813
      px      :     1.600368
      py      :     1.483718
      dz2     :     0.005895  d :     0.032725
      dxz     :     0.009356
      dyz     :     0.007589
      dx2y2   :     0.004765
      dxy     :     0.005120

 10 N s       :     3.600944  s :     3.600944
      pz      :     1.393044  p :     4.062119
      px      :     1.142931
      py      :     1.526144
      dz2     :     0.013189  d :     0.033944
      dxz     :     0.003170
      dyz     :     0.001497
      dx2y2   :     0.003674
      dxy     :     0.012414

 11 O s       :     3.836042  s :     3.836042
      pz      :     1.761964  p :     4.771769
      px      :     1.545328
      py      :     1.464477
      dz2     :     0.003164  d :     0.025204
      dxz     :     0.006095
      dyz     :     0.005066
      dx2y2   :     0.008580
      dxy     :     0.002299

 12 H s       :     0.659794  s :     0.659794
      pz      :     0.015528  p :     0.026954
      px      :     0.003832
      py      :     0.007594

 13 H s       :     0.584803  s :     0.584803
      pz      :     0.026127  p :     0.041426
      px      :     0.006932
      py      :     0.008367

 14 H s       :     0.816254  s :     0.816254
      pz      :     0.009306  p :     0.012214
      px      :     0.001248
      py      :     0.001660

 15 H s       :     0.688965  s :     0.688965
      pz      :     0.004992  p :     0.026184
      px      :     0.010436
      py      :     0.010755



                     *******************************
                     * LOEWDIN POPULATION ANALYSIS *
                     *******************************

----------------------
LOEWDIN ATOMIC CHARGES
----------------------
   0 C :    0.241049
   1 C :   -0.124883
   2 O :   -0.295519
   3 H :    0.203588
   4 O :   -0.202263
   5 C :   -0.014549
   6 H :    0.103271
   7 H :    0.094573
   8 C :    0.217277
   9 O :   -0.302055
  10 N :   -0.280597
  11 O :   -0.207935
  12 H :    0.142242
  13 H :    0.202630
  14 H :    0.087184
  15 H :    0.135986

-------------------------------
LOEWDIN REDUCED ORBITAL CHARGES
-------------------------------
  0 C s       :     2.839507  s :     2.839507
      pz      :     1.033906  p :     2.599027
      px      :     0.871635
      py      :     0.693486
      dz2     :     0.098384  d :     0.320418
      dxz     :     0.070674
      dyz     :     0.031849
      dx2y2   :     0.060933
      dxy     :     0.058578

  1 C s       :     2.897259  s :     2.897259
      pz      :     1.008475  p :     3.142789
      px      :     1.059907
      py      :     1.074408
      dz2     :     0.029749  d :     0.084835
      dxz     :     0.016020
      dyz     :     0.007386
      dx2y2   :     0.014119
      dxy     :     0.017561

  2 O s       :     3.547114  s :     3.547114
      pz      :     1.446696  p :     4.690467
      px      :     1.593609
      py      :     1.650162
      dz2     :     0.011973  d :     0.057938
      dxz     :     0.014263
      dyz     :     0.012930
      dx2y2   :     0.007442
      dxy     :     0.011329

  3 H s       :     0.675919  s :     0.675919
      pz      :     0.031935  p :     0.120492
      px      :     0.023379
      py      :     0.065178

  4 O s       :     3.458992  s :     3.458992
      pz      :     1.435903  p :     4.694987
      px      :     1.500789
      py      :     1.758296
      dz2     :     0.018580  d :     0.048284
      dxz     :     0.008255
      dyz     :     0.001060
      dx2y2   :     0.010990
      dxy     :     0.009399

  5 C s       :     2.868611  s :     2.868611
      pz      :     1.056388  p :     3.003335
      px      :     0.961643
      py      :     0.985304
      dz2     :     0.034542  d :     0.142603
      dxz     :     0.021307
      dyz     :     0.015189
      dx2y2   :     0.032761
      dxy     :     0.038803

  6 H s       :     0.854644  s :     0.854644
      pz      :     0.007886  p :     0.042085
      px      :     0.008865
      py      :     0.025334

  7 H s       :     0.863057  s :     0.863057
      pz      :     0.012042  p :     0.042369
      px      :     0.021829
      py      :     0.008498

  8 C s       :     2.849984  s :     2.849984
      pz      :     0.820880  p :     2.614549
      px      :     0.836053
      py      :     0.957616
      dz2     :     0.052706  d :     0.318190
      dxz     :     0.067371
      dyz     :     0.053044
      dx2y2   :     0.088024
      dxy     :     0.057046

  9 O s       :     3.546548  s :     3.546548
      pz      :     1.620703  p :     4.697947
      px      :     1.612072
      py      :     1.465172
      dz2     :     0.012141  d :     0.057560
      dxz     :     0.020360
      dyz     :     0.010002
      dx2y2   :     0.007444
      dxy     :     0.007613

 10 N s       :     3.181010  s :     3.181010
      pz      :     1.365535  p :     4.039476
      px      :     1.182513
      py      :     1.491428
      dz2     :     0.019859  d :     0.060112
      dxz     :     0.007367
      dyz     :     0.003406
      dx2y2   :     0.008059
      dxy     :     0.021422

 11 O s       :     3.455942  s :     3.455942
      pz      :     1.727586  p :     4.703872
      px      :     1.542731
      py      :     1.433555
      dz2     :     0.005486  d :     0.048121
      dxz     :     0.010382
      dyz     :     0.007510
      dx2y2   :     0.015210
      dxy     :     0.009533

 12 H s       :     0.771895  s :     0.771895
      pz      :     0.049086  p :     0.085863
      px      :     0.012685
      py      :     0.024092

 13 H s       :     0.677367  s :     0.677367
      pz      :     0.072522  p :     0.120002
      px      :     0.021397
      py      :     0.026084

 14 H s       :     0.873455  s :     0.873455
      pz      :     0.027844  p :     0.039360
      px      :     0.005409
      py      :     0.006108

 15 H s       :     0.781832  s :     0.781832
      pz      :     0.016083  p :     0.082182
      px      :     0.031356
      py      :     0.034743



                      *****************************
                      * MAYER POPULATION ANALYSIS *
                      *****************************

  NA   - Mulliken gross atomic population
  ZA   - Total nuclear charge
  QA   - Mulliken gross atomic charge
  VA   - Mayer's total valence
  BVA  - Mayer's bonded valence
  FA   - Mayer's free valence

  ATOM       NA         ZA         QA         VA         BVA        FA
  0 C      5.2187     6.0000     0.7813     3.7058     3.7058    -0.0000
  1 C      6.3073     6.0000    -0.3073     3.7301     3.7301    -0.0000
  2 O      8.5728     8.0000    -0.5728     1.9111     1.9111    -0.0000
  3 H      0.6241     1.0000     0.3759     0.8690     0.8690    -0.0000
  4 O      8.6292     8.0000    -0.6292     1.8494     1.8494    -0.0000
  5 C      6.0368     6.0000    -0.0368     3.7868     3.7868     0.0000
  6 H      0.8078     1.0000     0.1922     0.9398     0.9398     0.0000
  7 H      0.8147     1.0000     0.1853     0.9406     0.9406     0.0000
  8 C      5.2251     6.0000     0.7749     3.6884     3.6884    -0.0000
  9 O      8.5769     8.0000    -0.5769     1.8844     1.8844     0.0000
 10 N      7.6970     7.0000    -0.6970     2.7509     2.7509     0.0000
 11 O      8.6330     8.0000    -0.6330     1.8181     1.8181    -0.0000
 12 H      0.6867     1.0000     0.3133     0.8994     0.8994    -0.0000
 13 H      0.6262     1.0000     0.3738     0.8701     0.8701    -0.0000
 14 H      0.8285     1.0000     0.1715     0.9357     0.9357    -0.0000
 15 H      0.7151     1.0000     0.2849     0.9062     0.9062    -0.0000

  Mayer bond orders larger than 0.100000
B(  0-C ,  1-C ) :   0.9261 B(  0-C ,  4-O ) :   0.9893 B(  0-C ,  9-O ) :   1.8030 
B(  1-C ,  5-C ) :   0.9590 B(  1-C ,  6-H ) :   0.9519 B(  1-C ,  7-H ) :   0.9523 
B(  2-O ,  8-C ) :   1.8391 B(  3-H , 11-O ) :   0.8376 B(  4-O , 13-H ) :   0.8389 
B(  5-C ,  8-C ) :   0.9091 B(  5-C , 10-N ) :   1.0018 B(  5-C , 14-H ) :   0.9549 
B(  8-C , 11-O ) :   0.9646 B( 10-N , 12-H ) :   0.8717 B( 10-N , 15-H ) :   0.9023 


-------
TIMINGS
-------

Total SCF time: 0 days 0 hours 0 min 12 sec 

Total time                  ....      12.415 sec
Sum of individual times     ....      11.632 sec  ( 93.7%)

SCF preparation             ....       0.014 sec  (  0.1%)
Fock matrix formation       ....      11.582 sec  ( 93.3%)
  Startup                   ....       0.000 sec  (  0.0% of F)
  Coulomb+Exchange Fock     ....      12.356 sec  (106.7% of F)
Diagonalization             ....       0.000 sec  (  0.0%)
Density matrix formation    ....       0.003 sec  (  0.0%)
Total Energy calculation    ....       0.001 sec  (  0.0%)
Population analysis         ....       0.002 sec  (  0.0%)
Orbital Transformation      ....       0.004 sec  (  0.0%)
Orbital Orthonormalization  ....       0.000 sec  (  0.0%)
DIIS solution               ....       0.017 sec  (  0.1%)
SOSCF solution              ....       0.008 sec  (  0.1%)
Finished LeanSCF after  12.4 sec

Maximum memory used throughout the entire LEANSCF-calculation: 13.2 MB

------------------------------------------------------------------------------
                                ORCA  MP2 
------------------------------------------------------------------------------

Freezing NCore=18 chemical core electrons

----------
MP2 ENERGY (disk based algorithm)
----------

Dimension of the basis                      ...  161
Memory devoted to MP2                       ... 4096 MB   
Data format for buffers                     ... DOUBLE
Compression type for matrix containers      ... UNCOMPRESSED

-------------------------
SHARK HALF TRANSFORMATION (Exchange order)
-------------------------

Number of basis functions                   ...    161
Number of operators                         ...      1
   Operator  0:    9-  34 (p-index in (p*|q*))
   Operator  0:    9-  34 (q-index in (p*|q*)
Integral generator used                     ... SHARK
Contraction scheme used                     ... SEGMENTED CONTRACTION
MaxCore in resort                           ...   4096 MB

Half transformed integrals for op=   0      ... 4.SHARK_MNPQ0.tmp
Resorted half transformed integrals         ... 4.KAO_aa.tmp

Half trafo (segmented) done. Total time =  6.9 sec. integrals=  6.3 sec trafo=  0.5 sec

----------------------
SHARK INTEGRAL SORTING (Exchange)
----------------------

Input container                             ... 4.SHARK_MNPQ0.tmp
Output container                            ... 4.KAO_aa.tmp
Range of AO-indices                         ...    0 -  160
Range of bra indices i                      ...    9 -   34
Range of ket indices j                      ...    9 -   34
Symmetric i,j range                         ... YES
Number of (i,j) pairs generated             ...  351
Max Core memory in MB                       ...   4096

Available core memory in MB                 ...   4088.25
MB needed for one item                      ...      0.20
Fixed MB needed                             ...      0.00
Number of items                             ...       351
Number of batches                           ...         1
Items treated per batch                     ...       351
Batch   0                                   ...      0-   350 (   351)
   => Closing output file and leaving
done (  0.1 sec)

SHARK half integral transformation done. Total time =  7.0 sec.


Finished integral transformation - now doing MP2 part

OPERATOR COMBINATION   0   0: ij=(  9.. 34,  9.. 34)
  Internal MO  11
  Internal MO  14
  Internal MO  17
  Internal MO  20
  Internal MO  23
  Internal MO  26
  Internal MO  29
  Internal MO  32
-----------------------------------------------
 MP2 CORRELATION ENERGY   :     -1.403032169 Eh
-----------------------------------------------


-------
TIMINGS
-------
Total time                :    7.074 sec
Integral trafo            :    6.991 sec ( 98.8%)
K(i,j)                    :    0.066 sec (  0.9%)
T(i,j)                    :    0.002 sec (  0.0%)

---------------------------------------
MP2 TOTAL ENERGY:     -510.901885681 Eh
---------------------------------------

Maximum memory used throughout the entire MP2-calculation: 77.9 MB

-------------------------   --------------------
FINAL SINGLE POINT ENERGY      -510.901885680819
-------------------------   --------------------


------------------------------------------------------------------------------
                              ORCA PROPERTY CALCULATIONS
------------------------------------------------------------------------------

GBWName                                 ... 4.gbw
Number of atoms                         ...     16
Number of basis functions               ...    161
Max core memory                         ...   4096 MB

Electric properties:
Dipole moment                           ... YES
Quadrupole moment                       ...  NO
Static polarizability (Dipole/Dipole)   ...  NO
Static polarizability (Dipole/Quad.)    ...  NO
Static polarizability (Quad./Quad.)     ...  NO
Static polarizability (Velocity)        ...  NO
Static hyperpolarizability              ...  NO

Atomic electric properties:
Dipole moment                           ...  NO
Quadrupole moment                       ...  NO
Static polarizability                   ...  NO

Choice of electric origin               ... Center of mass
Position of electric origin             ...    -6.480705     4.301941     1.055556

General magnetic properties:
Magnetizability                         ...  NO

EPR properties:
g-Tensor (aka g-matrix)                 ...  NO
Zero-Field splitting spin-orbit         ...  NO
Zero-field splitting spin-spin          ...  NO
Hyperfine couplings                     ...  NO (   0 nuclei)
Quadrupole couplings                    ...  NO (   0 nuclei)
Contact density                         ...  NO (   0 nuclei)

NMR properties:
Chemical shifts                         ...  NO (   0 nuclei)
Spin-rotation constants                 ...  NO (   0 nuclei)
Spin-spin couplings                     ...  NO (   0 nuclei,    0 pairs)

Choice of magnetic origin               ... GIAO
Position of magnetic origin             ...     0.000000     0.000000     0.000000

Properties with geometric perturbations:
SCF Hessian                             ...  NO
IR spectrum                             ...  NO
VCD spectrum                            ...  NO
X-ray spectroscopy properties:
SCF XES/XAS/RIXS spectra                ...  NO

SCF SOC stabilization energy            ...  NO
Diagonal Born-Oppenheimer correction    ...  NO

-------------
DIPOLE MOMENT
-------------

Method             : SCF
Type of density    : Electron Density
Multiplicity       :   1
Irrep              :   0
Energy             :  -509.4988535122368489 Eh
Basis              : AO
                                X                 Y                 Z
Electronic contribution:     -1.792623110       2.076435792       2.592638830
Nuclear contribution   :      0.679457390      -1.731916692      -3.080565710
                        -----------------------------------------
Total Dipole Moment    :     -1.113165721       0.344519099      -0.487926880
                        -----------------------------------------
Magnitude (a.u.)       :      1.263290929
Magnitude (Debye)      :      3.211030357



--------------------
Rotational spectrum 
--------------------
 
Rotational constants in cm-1:             0.071303             0.048217             0.038944 
Rotational constants in MHz :          2137.602387          1445.507077          1167.502067 

Dipole components along the rotational axes: 
x,y,z [a.u.] :    -0.042084    -1.102105    -0.616034 
x,y,z [Debye]:    -0.106970    -2.801328    -1.565834 

 

Dipole moment calculation done in   0.0 sec 

Maximum memory used throughout the entire PROP-calculation: 7.9 MB

--------------------------------
SUGGESTED CITATIONS FOR THIS RUN
--------------------------------

Below you find a list of papers that are relevant to this ORCA run
We neither can nor want to force you to cite these papers, but we appreciate if you do
You receive ORCA, which is the product of decades of hard work by many enthusiastic individuals, for free
The only thing we kindly ask in return is that you cite our papers,
We deeply appreciate it, if you show your appreciation for ORCA by not just citing the generic ORCA reference.

Please note that relegating all ORCA citations to the supporting information does *not* help us.
SI sections are not indexed - citations you put there will not count into any citation statistics
But we need these citations in order to attract the funding resources that allow us to do what we are doing

Therefore, if you are a happy ORCA user, please consider citing a few of the papers listed below in the main body of your paper

In addition to the list printed below, the program has created the file 4.bibtex that contains the list in bibtex format
You can import this file easily into all common literature databanks and citation aid programs


List of essential papers. We consider these as the minimum necessary citations

  1. Neese, F.
     Software update: the ORCA program system, version 6.0
     WIRES Comput. Molec. Sci. 2025 15(1), e70019
     doi.org/10.1002/wcms.7019

List of papers to cite with high priority. The work reported in these papers was absolutely
necessary for this run to complete.
Our perspective: the developers of density functionals and basis sets usually get cited in chemistry papers
Good! But without the algorithms to do something with them, the functionals or basis sets would not do anything.
Hence, in our opinion, the algorithm design and method developments papers are equally worthy of getting cited

  1. Neese, F.
     The SHARK Integral Generation and Digestion System
     J. Comp. Chem. 2022 44(3), 381
     doi.org/10.1002/jcc.26942

List of suggested additional citations. These are papers that are important in the 'surrounding' of 
of this run, or papers that preceded the highly important papers. If you like your results we are grateful for a citation.

  1. Neese, F.
     The ORCA program system
     WIRES Comput. Molec. Sci. 2012 2(1), 73-78
     doi.org/10.1002/wcms.81
  2. Neese, F.
     Software update: the ORCA program system, version 4.0
     WIRES Comput. Molec. Sci. 2018 8(1), 1-6
     doi.org/10.1002/wcms.1327
  3. Neese, F.; Wennmohs, F.; Becker, U.; Riplinger, C.
     The ORCA quantum chemistry program package
     J. Chem. Phys. 2020 152(22), 224108
     doi.org/10.1063/5.0004608
  4. Neese, F.
     Software update: The ORCA program system—Version 5.0
     WIRES Comput. Molec. Sci. 2022 12(1), e1606
     doi.org/10.1002/wcms.1606

List of optional additional citations

  1. Neese, F.
     Approximate second-order SCF convergence for spin unrestricted wavefunctions
     Chem. Phys. Lett. 2000 325(1-3), 93-98
     doi.org/10.1016/s0009-2614(00)00662-x

Timings for individual modules:

Sum of individual times          ...       20.079 sec (=   0.335 min)
Startup calculation              ...        0.346 sec (=   0.006 min)   1.7 %
SCF iterations                   ...       12.612 sec (=   0.210 min)  62.8 %
Property calculations            ...        0.024 sec (=   0.000 min)   0.1 %
MP2 module                       ...        7.098 sec (=   0.118 min)  35.4 %
                             ****ORCA TERMINATED NORMALLY****
TOTAL RUN TIME: 0 days 0 hours 0 minutes 20 seconds 116 msec
