
                                 *****************
                                 * O   R   C   A *
                                 *****************

                                            #,                                       
                                            ###                                      
                                            ####                                     
                                            #####                                    
                                            ######                                   
                                           ########,                                 
                                     ,,################,,,,,                         
                               ,,#################################,,                 
                          ,,##########################################,,             
                       ,#########################################, ''#####,          
                    ,#############################################,,   '####,        
                  ,##################################################,,,,####,       
                ,###########''''           ''''###############################       
              ,#####''   ,,,,##########,,,,          '''####'''          '####       
            ,##' ,,,,###########################,,,                        '##       
           ' ,,###''''                  '''############,,,                           
         ,,##''                                '''############,,,,        ,,,,,,###''
      ,#''                                            '''#######################'''  
     '                                                          ''''####''''         
             ,#######,   #######,   ,#######,      ##                                
            ,#'     '#,  ##    ##  ,#'     '#,    #''#        ,####,    ,#,          
            ##       ##  ##   ,#'  ##            #'  '#       #'       ,# #          
            ##       ##  #######   ##           ,######,      #####,      #          
            '#,     ,#'  ##    ##  '#,     ,#' ,#      #,     #,   #      #          
             '#######'   ##     ##  '#######'  #'      '#     '####' #    #          



                #########################################################
                #                        -***-                          #
                #          Department of theory and spectroscopy        #
                #                                                       #
                #                      Frank Neese                      #
                #                                                       #
                #     Directorship, Architecture, Infrastructure        #
                #                    SHARK, DRIVERS                     #
                #        Core code/Algorithms in most modules           #
                #                                                       #
                #        Max Planck Institute fuer Kohlenforschung      #
                #                Kaiser Wilhelm Platz 1                 #
                #                 D-45470 Muelheim/Ruhr                 #
                #                      Germany                          #
                #                                                       #
                #                  All rights reserved                  #
                #                        -***-                          #
                #########################################################


                         Program Version 6.1.0  -  RELEASE   -
                                (GIT: $679e74b$)
                          ($2025-06-10 18:02:51 +0200$)


 With contributions from (in alphabetic order):
[Max-Planck-Institut fuer Kohlenforschung]                               
  Daniel Aravena         : Magnetic Suceptibility                        
  Michael Atanasov       : Ab Initio Ligand Field Theory (pilot matlab implementation)
  Alexander A. Auer      : GIAO ZORA, VPT2 properties, NMR spectrum      
  Ute Becker             : All parallelization in ORCA, NUMFREQ, NUMCALC 
  Giovanni Bistoni       : ED, misc. LED, open-shell LED, HFLD           
  Dmytro Bykov           : pre 5.0 version of the SCF Hessian            
  Marcos Casanova-Páez   : Triplet and SCS-CIS(D). UHF-(DLPNO)-IP/EA/STEOM-CCSD. UHF-CVS-IP/STEOM-CCSD   
  Vijay G. Chilkuri      : MRCI spin determinant printing, contributions to CSF-ICE 
  Pauline Colinet        : FMM embedding                                 
  Dipayan Datta          : RHF DLPNO-CCSD density                        
  Achintya Kumar Dutta   : EOM-CC, STEOM-CC                              
  Nicolas Foglia         : Exact transition moments, OPA infrastructure, MCD improvements    
  Dmitry Ganyushin       : Spin-Orbit,Spin-Spin,Magnetic field MRCI      
  Miquel Garcia-Rates    : C-PCM and meta-GGA Hessian, CCSD/C-PCM, Gaussian charge scheme 
  Tiago L. C. Gouveia    : GS-ROHF, GS-ROCIS                             
  Yang Guo               : DLPNO-NEVPT2, F12-NEVPT2, CIM, IAO-localization        
  Andreas Hansen         : Spin unrestricted coupled pair/coupled cluster methods 
  Ingolf Harden          : AUTO-CI MPn and infrastructure                
  Benjamin Helmich-Paris : MC-RPA, TRAH-(SCF,CASSCF), AVAS, COSX integrals, SCF dyn. polar., MC-PDFT, srDFT 
  Lee Huntington         : MR-EOM, pCC                                   
  Robert Izsak           : Overlap fitted RIJCOSX, COSX-SCS-MP3, EOM     
  Riya Kayal             : Wick's Theorem for AUTO-CI, AUTO-CI UHF-CCSDT 
  Emily Kempfer          : AUTO-CI RHF CISDT and CCSDT, approximate NEVPT4
  Christian Kollmar      : KDIIS, OOCD, Brueckner-CCSD(T), CCSD density, CASPT2, CASPT2-K, improved NEVPT2 
  Axel Koslowski         : Symmetry handling                             
  Simone Kossmann        : meta-GGA functionals, TD-DFT gradient, OOMP2, (MP2 Hessian; deprecated post 5.0) 
  Lucas Lang             : DCDCAS, Hyperfine gauge corrections, ICE-SOC+SSC
  Marvin Lechner         : AUTO-CI (C++ implementation), FIC-MRCC        
  Spencer Leger          : CASSCF response                               
  Dagmar Lenk            : GEPOL surface, SMD, ORCA-2-JSON               
  Dimitrios Liakos       : Extrapolation schemes; Compound Job, Property file
  Dimitrios Manganas     : Further ROCIS development; embedding schemes. LFT, Crystal Embedding 
  Dimitrios Pantazis     : SARC Basis sets                               
  Anastasios Papadopoulos: AUTO-CI, single reference methods and gradients 
  Taras Petrenko         : pre 6.0 DFT Hessian and TD-DFT gradient,  ECA, NRVS 
  Petra Pikulova         : Analytic Raman intensities                    
  Peter Pinski           : DLPNO-MP2, DLPNO-MP2 Gradient                 
  Shashank Vittal Rao    : ES-AILFT, MagRelax                            
  Christoph Reimann      : Effective Core Potentials                     
  Marius Retegan         : Local ZFS, SOC                                
  Christoph Riplinger    : Optimizer, TS searches, QM/MM, DLPNO-CCSD(T), (RO)-DLPNO pert. Triples 
  Michael Roemelt        : Original ROCIS implementation, recursive CI coupling coefficients
  Masaaki Saitow         : Open-shell DLPNO-CCSD energy and density      
  Barbara Sandhoefer     : DKH picture change effects                    
  Yorick L. A. Schmerwitz: GMF and freeze-and-release deltaSCF, NEB S-IDPP initial path                    
  Kantharuban Sivalingam : CASSCF convergence/infrastructure, NEVPT2, NEVPT3, NEVPT4(SD), FIC-MRCI and CEPA variants
  Bernardo de Souza      : ESD, SOC TD-DFT                               
  Georgi L. Stoychev     : AutoAux, RI-MP2 NMR, DLPNO-MP2 response, X2C  
  Van Anh Tran           : RI-MP2 g-tensors                              
  Willem Van den Heuvel  : Paramagnetic NMR                              
  Zikuan Wang            : NOTCH, Electric field optimization            
  Frank Wennmohs         : Technical directorship and infrastructure     
  Hang Xu                : AUTO-CI-Response properties                   
                                                                         
[FACCTs GmbH]                                                            
  Markus Bursch, Nicolas Foglia, Miquel Garcia-Rates, Ingolf Harden, Hagen Neugebauer, Anastasios Papadopoulos, 
  Christoph Riplinger, Bernardo de Souza, Georgi L. Stoychev                                                    
                                                                 
  APM, various basis sets, CI-OPT, improved COSX, DLPNO-Multilevel,           
  DOCKER, DRACO, updates on ESD, Fragmentator, GOAT, IRC, LR-CPCM, L-BFGS, MBIS, meta-GGA TD-DFT gradient, ML-optimized integration grids, 
  MM, NACMEs, nearIR, NEB, NEB-TS, NL-DFT gradient (VV10), 2- and 3-layer-ONIOM, interface openCOSMO-RS, QMMM,   
  Crystal-QMMM, RESP, rigid body optimization, SF, symmetry and pop. for TD-DFT, various functionals, SOLVATOR                                   
                                                                         
[Other institutions]                                                     
  V. Asgeirsson          : NEB                                           
  Christoph Bannwarth    : sTDA-DFT, sTD-DFT, PBEh-3c, B97-3c, D3        
  Giovanni Bistoni       : ETS/NOCV, ADLD/ADEX, COVALED                  
  Martin Brehm           : Molecular dynamics                            
  Ronald Cardenas        : ETS/NOCV                                      
  Martina Colucci        : COVALED                                       
  Sebastian Ehlert       : rSCAN, r2SCAN, r2SCAN-3c, D4, dhf basis sets  
  Marvin Friede          : D4 for Fr, Ra, Ac-Lr                          
  Lars Goerigk           : TD-DFT with DH, B97 family of functionals     
  Stefan Grimme          : VdW corrections, initial TS optimization, DFT functionals, gCP, sTDA/sTD-DF 
  Waldemar Hujo          : DFT-NL                                        
  H. Jonsson             : NEB                                           
  Holger Kruse           : gCP                                           
  Marcel Mueller         : wB97X-3c, vDZP basis set                      
  Hagen Neugebauer       : wr2SCAN, Native XTB                           
  Gianluca Regni         : ADLD/ADEX                                     
  Tobias Risthaus        : pre 6.0 range-separated hybrid DFT and stability analysis
  Lukas Wittmann         : regularized MP2, r2SCAN double-hybrids, wr2SCAN        
                                                                         
We gratefully acknowledge several colleagues who have allowed us to      
interface, adapt or use parts of their codes:                            
  Ed Valeev, F. Pavosevic, A. Kumar             : LibInt (2-el integral package), F12 methods 
  Garnet Chan, S. Sharma, J. Yang, R. Olivares  : DMRG                   
  Ulf Ekstrom                                   : XCFun DFT Library      
  Mihaly Kallay                                 : mrcc  (arbitrary order and MRCC methods)
  Frank Weinhold                                : gennbo (NPA and NBO analysis)           
  Simon Mueller                                 : openCOSMO-RS                            
  Christopher J. Cramer and Donald G. Truhlar   : smd solvation model                     
  S Lehtola, MJT Oliveira, MAL Marques          : LibXC Library                           
  Liviu Ungur et al                             : ANISO software                          


 Your calculation uses the libint2 library for the computation of 2-el integrals
 For citations please refer to: http://libint.valeyev.net

 Your ORCA version has been built with support for libXC version: 7.0.0
 For citations please refer to: https://libxc.gitlab.io

 This ORCA versions uses:
   CBLAS   interface :  Fast vector & matrix operations
   LAPACKE interface :  Fast linear algebra routines
   SCALAPACK package :  Parallel linear algebra routines
   Shared memory     :  Shared parallel matrices
   BLAS/LAPACK       :  OpenBLAS 0.3.29  USE64BITINT DYNAMIC_ARCH NO_AFFINITY Haswell SINGLE_THREADED
        Core in use  :  Haswell
   Copyright (c) 2011-2014, The OpenBLAS Project


  ***********************************
  * Starting time: Mon Aug 11 13:40:52 2025
  * Host name:     chemlab03
  * Process ID:    2270565
  * Working dir.:  /home/test/Desktop/Aishani MM/attachments
  ***********************************



***************************************
The coordinates will be read from file: s.xyz
***************************************


Your calculation utilizes the semiempirical GFN2-xTB method
Please cite in your paper:
Bannwarth, C.; Ehlert S.; Grimme, S. J. Chem. Theory Comput. 2019, 15, 1652.
   

================================================================================

================================================================================
                                        WARNINGS
                       Please study these warnings very carefully!
================================================================================


================================================================================
 STARTING AUTOMATIC FRAGMENTATION: 
================================================================================

WARNING: Geometry Optimization
  ===> : Switching off AutoStart
         For restart on a previous wavefunction, please use MOREAD

WARNING: Found dipole moment calculation with XTB calculation
  ===> : Switching off dipole moment calculation


================================================================================
                                       INPUT FILE
================================================================================
NAME = s.inp
|  1> ! xtb goat
|  2> 
|  3> * xyzfile 0 1 s.xyz
|  4> 
|  5>                          ****END OF INPUT****
================================================================================

                       *****************************
                       * Geometry Optimization Run *
                       *****************************


                       *********************************
                       *              GOAT             *
                       * Global Optimization Algorithm *
                       *********************************

Geometry optimization settings:
Update method            Update   .... BFGS
Choice of coordinates    CoordSys .... (2022) Redundant Internals
Initial Hessian          InHess   .... Almloef's Model
Max. no of cycles        MaxIter  .... 50

Convergence Tolerances:
Energy Change            TolE     ....  5.0000e-06 Eh
Max. Gradient            TolMAXG  ....  3.0000e-04 Eh/bohr
RMS Gradient             TolRMSG  ....  1.0000e-04 Eh/bohr
Max. Displacement        TolMAXD  ....  4.0000e-03 bohr
RMS Displacement         TolRMSD  ....  2.0000e-03 bohr
Strict Convergence                .... True

------------------------------------------------------------------------------
                        ORCA OPTIMIZATION COORDINATE SETUP
------------------------------------------------------------------------------

The optimization will be done in redundant internal coordinates (2022)
Making redundant internal coordinates   ...  (2022 redundants) done
Evaluating the initial hessian          ...  (Almloef) done
Evaluating the coordinates              ...  done
Calculating the B-matrix                .... done
Calculating the G-matrix                .... done
The number of degrees of freedom        ....   56

    -----------------------------------------------------------------
                    Redundant Internal Coordinates


    -----------------------------------------------------------------
         Definition                    Initial Value    Approx d2E/dq
    -----------------------------------------------------------------
      1. B(C   1,C   0)                  1.5316         0.371351   
      2. B(O   4,H   3)                  2.1057         0.010000   
      3. B(O   4,C   1)                  1.3544         0.637713   
      4. B(C   5,C   0)                  1.5339         0.368211   
      5. B(H   6,O   4)                  0.9802         0.482782   
      6. B(N   7,H   3)                  1.0246         0.410140   
      7. B(N   7,H   2)                  1.0260         0.407972   
      8. B(N   7,C   0)                  1.4892         0.388721   
      9. B(O   8,C   1)                  1.2215         1.039114   
     10. B(O   9,H   2)                  2.2599         0.010000   
     11. B(O   9,C   5)                  1.4328         0.478228   
     12. B(H  10,C   0)                  1.0952         0.353264   
     13. B(H  11,C   5)                  1.0952         0.353252   
     14. B(H  12,C   5)                  1.0946         0.354115   
     15. B(H  13,O   9)                  0.9734         0.494982   
     16. A(C   1,C   0,N   7)          111.5449         0.363182   
     17. A(C   1,C   0,C   5)          109.4668         0.362086   
     18. A(N   7,C   0,H  10)          108.3722         0.323472   
     19. A(C   5,C   0,N   7)          110.3526         0.362655   
     20. A(C   1,C   0,H  10)          106.5751         0.322984   
     21. A(C   5,C   0,H  10)          110.4606         0.322534   
     22. A(C   0,C   1,O   8)          126.5273         0.431524   
     23. A(C   0,C   1,O   4)          113.6033         0.395689   
     24. A(O   4,C   1,O   8)          119.7761         0.472933   
     25. A(C   1,O   4,H   6)          103.6651         0.367204   
     26. A(C   0,C   5,H  11)          110.0981         0.322533   
     27. A(H  11,C   5,H  12)          108.6250         0.289203   
     28. A(C   0,C   5,O   9)          110.3261         0.375796   
     29. A(O   9,C   5,H  12)          108.2504         0.334865   
     30. A(C   0,C   5,H  12)          111.8020         0.322662   
     31. A(O   9,C   5,H  11)          107.6193         0.334729   
     32. A(C   0,N   7,H   3)          106.8341         0.328703   
     33. A(C   0,N   7,H   2)          105.7795         0.328416   
     34. A(H   2,N   7,H   3)          104.2193         0.297874   
     35. A(C   5,O   9,H  13)          106.6066         0.351136   
     36. D(O   8,C   1,C   0,C   5)     46.6448         0.010321   
     37. D(O   4,C   1,C   0,N   7)    -14.4823         0.010321   
     38. D(O   4,C   1,C   0,C   5)   -136.9040         0.010321   
     39. D(O   4,C   1,C   0,H  10)    103.6214         0.010321   
     40. D(O   8,C   1,C   0,N   7)    169.0665         0.010321   
     41. D(H   6,O   4,C   1,O   8)     -2.7468         0.033081   
     42. D(H   6,O   4,C   1,C   0)   -179.4616         0.033081   
     43. D(H  11,C   5,C   0,H  10)    -51.5386         0.010845   
     44. D(H  11,C   5,C   0,N   7)     68.2773         0.010845   
     45. D(H  11,C   5,C   0,C   1)   -168.5920         0.010845   
     46. D(O   9,C   5,C   0,H  10)   -170.1761         0.010845   
     47. D(O   9,C   5,C   0,N   7)    -50.3602         0.010845   
     48. D(O   9,C   5,C   0,C   1)     72.7705         0.010845   
     49. D(H   2,N   7,C   0,C   5)     42.6492         0.012919   
     50. D(H   2,N   7,C   0,C   1)    -79.2624         0.012919   
     51. D(H   3,N   7,C   0,C   5)    153.2701         0.012919   
     52. D(H   3,N   7,C   0,C   1)     31.3585         0.012919   
     53. D(H   2,N   7,C   0,H  10)    163.7178         0.012919   
     54. D(H  13,O   9,C   5,H  12)    -60.3501         0.019558   
     55. D(H  13,O   9,C   5,H  11)     56.8803         0.019558   
     56. D(H  13,O   9,C   5,C   0)    177.0212         0.019558   
    -----------------------------------------------------------------

Number of atoms                         .... 14
Number of degrees of freedom            .... 56


         *************************************************************
         *                GEOMETRY OPTIMIZATION CYCLE   1            *
         *************************************************************
---------------------------------
CARTESIAN COORDINATES (ANGSTROEM)
---------------------------------
  C    -1.922723    3.017590   -0.380016
  C    -0.550856    3.553265    0.040589
  H    -2.973073    2.980908    1.351114
  H    -2.716764    4.479393    0.796335
  O    -0.616956    4.608074    0.887636
  C    -1.905792    1.484173   -0.343834
  H     0.322951    4.833424    1.050634
  N    -3.007030    3.544355    0.494318
  O     0.535660    3.162664   -0.358211
  O    -1.905551    1.018285    1.011077
  H    -2.098061    3.374553   -1.400474
  H    -2.802361    1.086299   -0.831052
  H    -1.023897    1.075380   -0.847039
  H    -1.943069    0.046431    0.971093

----------------------------
CARTESIAN COORDINATES (A.U.)
----------------------------
  NO LB    ZA    FRAG    MASS        X           Y           Z
   0 C   6.0000    1    12.011   -3.633421    5.702419   -0.718125
   1 C   6.0000    1    12.011   -1.040967    6.714697    0.076702
   2 H   1.0000    1     1.008   -5.618293    5.633100    2.553235
   3 H   1.0000    1     1.008   -5.133941    8.464827    1.504855
   4 O   8.0000    1    15.999   -1.165878    8.707998    1.677389
   5 C   6.0000    1    12.011   -3.601425    2.804681   -0.649752
   6 H   1.0000    1     1.008    0.610290    9.133847    1.985411
   7 N   7.0000    1    14.007   -5.682464    6.697859    0.934125
   8 O   8.0000    1    15.999    1.012251    5.976568   -0.676921
   9 O   8.0000    1    15.999   -3.600970    1.924279    1.910659
  10 H   1.0000    1     1.008   -3.964761    6.376981   -2.646512
  11 H   1.0000    1     1.008   -5.295696    2.052808   -1.570460
  12 H   1.0000    1     1.008   -1.934885    2.032173   -1.600672
  13 H   1.0000    1     1.008   -3.671868    0.087743    1.835100

      -----------------------------------------------------------      
     |                   =====================                   |     
     |                           x T B                           |     
     |                   =====================                   |     
     |                         S. Grimme                         |     
     |          Mulliken Center for Theoretical Chemistry        |     
     |                    University of Bonn                     |     
      -----------------------------------------------------------      

   * xtb version 6.7.1 (edcfbbe) compiled by 'albert@albert-system' on 2024-07-22

   xtb is free software: you can redistribute it and/or modify it under
   the terms of the GNU Lesser General Public License as published by
   the Free Software Foundation, either version 3 of the License, or
   (at your option) any later version.
   
   xtb is distributed in the hope that it will be useful,
   but WITHOUT ANY WARRANTY; without even the implied warranty of
   MERCHANTABILITY or FITNESS FOR A PARTICULAR PURPOSE.  See the
   GNU Lesser General Public License for more details.
   
   Cite this work as:
   * C. Bannwarth, E. Caldeweyher, S. Ehlert, A. Hansen, P. Pracht,
     J. Seibert, S. Spicher, S. Grimme, WIREs Comput. Mol. Sci., 2020, 11,
     e01493. DOI: 10.1002/wcms.1493
   
   for GFN2-xTB:
   * C. Bannwarth, S. Ehlert and S. Grimme., J. Chem. Theory Comput., 2019,
     15, 1652-1671. DOI: 10.1021/acs.jctc.8b01176
   for GFN1-xTB:
   * S. Grimme, C. Bannwarth, P. Shushkov, J. Chem. Theory Comput., 2017,
     13, 1989-2009. DOI: 10.1021/acs.jctc.7b00118
   for GFN0-xTB:
   * P. Pracht, E. Caldeweyher, S. Ehlert, S. Grimme, ChemRxiv, 2019, preprint.
     DOI: 10.26434/chemrxiv.8326202.v1
   for GFN-FF:
   * S. Spicher and S. Grimme, Angew. Chem. Int. Ed., 2020, 59, 15665-15673.
     DOI: 10.1002/anie.202004239
   
   for ALPB and GBSA implicit solvation:
   * S. Ehlert, M. Stahn, S. Spicher, S. Grimme, J. Chem. Theory Comput.,
     2021, 17, 4250-4261. DOI: 10.1021/acs.jctc.1c00471
   
   for ddCOSMO and CPCM-X implicit solvation:
   * M. Stahn, S. Ehlert, S. Grimme, J. Phys. Chem. A,
     2023, XX, XXXX-XXXX. DOI: 10.1021/acs.jpca.3c04382
   
   for DFT-D4:
   * E. Caldeweyher, C. Bannwarth and S. Grimme, J. Chem. Phys., 2017,
     147, 034112. DOI: 10.1063/1.4993215
   * E. Caldeweyher, S. Ehlert, A. Hansen, H. Neugebauer, S. Spicher,
     C. Bannwarth and S. Grimme, J. Chem. Phys., 2019, 150, 154122.
     DOI: 10.1063/1.5090222
   * E. Caldeweyher, J.-M. Mewes, S. Ehlert and S. Grimme, Phys. Chem. Chem. Phys.
     2020, 22, 8499-8512. DOI: 10.1039/D0CP00502A
   
   for sTDA-xTB:
   * S. Grimme and C. Bannwarth, J. Chem. Phys., 2016, 145, 054103.
     DOI: 10.1063/1.4959605
   
   in the mass-spec context:
   * V. Asgeirsson, C. Bauer and S. Grimme, Chem. Sci., 2017, 8, 4879.
     DOI: 10.1039/c7sc00601b
   * J. Koopman and S. Grimme, ACS Omega 2019, 4, 12, 15120-15133.
     DOI: 10.1021/acsomega.9b02011
   
   for metadynamics refer to:
   * S. Grimme, J. Chem. Theory Comput., 2019, 155, 2847-2862
     DOI: 10.1021/acs.jctc.9b00143
   
   for SPH calculations refer to:
   * S. Spicher and S. Grimme, J. Chem. Theory Comput., 2021, 17, 1701-1714
     DOI: 10.1021/acs.jctc.0c01306
   
   for ONIOM refer to:
   * C. Plett, A. Katbashev, S. Ehlert, S. Grimme, M. Bursch,
     Phys. Chem. Chem. Phys., 2023, 25, 17860-17868. DOI: 10.1039/D3CP02178E
   
   for DIPRO refer to:
   * J. Kohn, N. Gildemeister, S. Grimme, D. Fazzi, A. Hansen,
     J. Chem. Phys., 2023, just accepted.
   
   for PTB refer to:
   * S. Grimme, M. Mueller, A. Hansen, J. Chem. Phys., 2023, 158, 124111.
     DOI: 10.1063/5.0137838
   
   with help from (in alphabetical order)
   P. Atkinson, C. Bannwarth, F. Bohle, G. Brandenburg, E. Caldeweyher
   M. Checinski, S. Dohm, S. Ehlert, S. Ehrlich, I. Gerasimov, C. Hölzer
   A. Katbashev, J. Kohn, J. Koopman, C. Lavigne, S. Lehtola, F. März, M. Müller,
   F. Musil, H. Neugebauer, J. Pisarek, C. Plett, P. Pracht, F. Pultar,
   J. Seibert, P. Shushkov, S. Spicher, M. Stahn, M. Steiner, T. Strunk,
   J. Stückrath, T. Rose, and J. Unsleber
   
 * started run on 2025/08/11 at 13:40:53.002     
   ID    Z sym.   atoms
    1    6 C      1, 2, 6
    2    1 H      3, 4, 7, 11-14
    3    8 O      5, 9, 10
    4    7 N      8

           -------------------------------------------------
          |                Calculation Setup                |
           -------------------------------------------------

          program call               : /home/test/orca/orca_6_1_0_linux_x86-64_shared_openmpi418/otool_xtb s_XTB.xyz --grad -c 0 -u 0 -P 1 --namespace s --input s_XTB.input.tmp --acc 0.200000
          calculation namespace      : s
          coordinate file            : s_XTB.xyz
          omp threads                :                     1


           -------------------------------------------------
          |                 G F N 2 - x T B                 |
           -------------------------------------------------

        Reference                      10.1021/acs.jctc.8b01176
      * Hamiltonian:
        H0-scaling (s, p, d)           1.850000    2.230000    2.230000
        zeta-weighting                 0.500000
      * Dispersion:
        s8                             2.700000
        a1                             0.520000
        a2                             5.000000
        s9                             5.000000
      * Repulsion:
        kExp                           1.500000    1.000000
        rExp                           1.000000
      * Coulomb:
        alpha                          2.000000
        third order                    shell-resolved
        anisotropic                    true
        a3                             3.000000
        a5                             4.000000
        cn-shift                       1.200000
        cn-exp                         4.000000
        max-rad                        5.000000


          ...................................................
          :                      SETUP                      :
          :.................................................:
          :  # basis functions                  35          :
          :  # atomic orbitals                  35          :
          :  # shells                           21          :
          :  # electrons                        42          :
          :  max. iterations                   250          :
          :  Hamiltonian                  GFN2-xTB          :
          :  restarted?                      false          :
          :  GBSA solvation                  false          :
          :  PC potential                    false          :
          :  electronic temp.          300.0000000     K    :
          :  accuracy                    0.2000000          :
          :  -> integral cutoff          0.3198970E+02      :
          :  -> integral neglect         0.2000000E-08      :
          :  -> SCF convergence          0.2000000E-06 Eh   :
          :  -> wf. convergence          0.2000000E-04 e    :
          :  Broyden damping             0.4000000          :
          :  net charge                          0          :
          :  unpaired electrons                  0          :
          ...................................................

 iter      E             dE          RMSdq      gap      omega  full diag
   1    -25.2418713 -0.252419E+02  0.473E+00    4.14       0.0  T
   2    -25.2818537 -0.399824E-01  0.248E+00    3.64       1.0  T
   3    -25.2831720 -0.131828E-02  0.130E+00    3.85       1.0  T
   4    -25.2872511 -0.407909E-02  0.197E-01    3.43       1.0  T
   5    -25.2874322 -0.181061E-03  0.797E-02    3.43       1.0  T
   6    -25.2874475 -0.153464E-04  0.352E-02    3.43       1.0  T
   7    -25.2874497 -0.216465E-05  0.112E-02    3.43       2.4  T
   8    -25.2874498 -0.178970E-06  0.349E-03    3.43       7.7  T
   9    -25.2874499 -0.182238E-07  0.124E-03    3.43      21.6  T
  10    -25.2874499 -0.215402E-08  0.399E-04    3.43      66.9  T
  11    -25.2874499 -0.269136E-09  0.163E-04    3.43     164.4  T
  12    -25.2874499 -0.461888E-10  0.596E-05    3.43     448.3  T

   *** convergence criteria satisfied after 12 iterations ***

         #    Occupation            Energy/Eh            Energy/eV
      -------------------------------------------------------------
         1        2.0000           -0.7538081             -20.5122
       ...           ...                  ...                  ...
        15        2.0000           -0.5029322             -13.6855
        16        2.0000           -0.4849189             -13.1953
        17        2.0000           -0.4761267             -12.9561
        18        2.0000           -0.4639421             -12.6245
        19        2.0000           -0.4401802             -11.9779
        20        2.0000           -0.4248597             -11.5610
        21        2.0000           -0.3789271             -10.3111 (HOMO)
        22                         -0.2528390              -6.8801 (LUMO)
        23                         -0.0093374              -0.2541
        24                          0.0197832               0.5383
        25                          0.0466835               1.2703
        26                          0.0870558               2.3689
       ...                                ...                  ...
        35                          0.5575993              15.1730
      -------------------------------------------------------------
                  HL-Gap            0.1260881 Eh            3.4310 eV
             Fermi-level           -0.3158830 Eh           -8.5956 eV

 SCC (total)                   0 d,  0 h,  0 min,  0.009 sec
 SCC setup                      ...        0 min,  0.000 sec (  1.136%)
 Dispersion                     ...        0 min,  0.000 sec (  0.464%)
 classical contributions        ...        0 min,  0.000 sec (  0.127%)
 integral evaluation            ...        0 min,  0.001 sec (  6.178%)
 iterations                     ...        0 min,  0.007 sec ( 75.851%)
 molecular gradient             ...        0 min,  0.001 sec ( 15.495%)
 printout                       ...        0 min,  0.000 sec (  0.649%)

         :::::::::::::::::::::::::::::::::::::::::::::::::::::
         ::                     SUMMARY                     ::
         :::::::::::::::::::::::::::::::::::::::::::::::::::::
         :: total energy             -25.091628923799 Eh    ::
         :: gradient norm              0.058429760520 Eh/a0 ::
         :: HOMO-LUMO gap              3.431032576911 eV    ::
         ::.................................................::
         :: SCC energy               -25.287431861496 Eh    ::
         :: -> isotropic ES            0.082192440865 Eh    ::
         :: -> anisotropic ES          0.001649431994 Eh    ::
         :: -> anisotropic XC          0.003983564700 Eh    ::
         :: -> dispersion             -0.008156083146 Eh    ::
         :: repulsion energy           0.195802937697 Eh    ::
         :: add. restraining           0.000000000000 Eh    ::
         :: total charge               0.000000000000 e     ::
         :::::::::::::::::::::::::::::::::::::::::::::::::::::


Property printout bound to 'properties.out'

           -------------------------------------------------
          | TOTAL ENERGY              -25.091628923799 Eh   |
          | GRADIENT NORM               0.058429760520 Eh/α |
          | HOMO-LUMO GAP               3.431032576911 eV   |
           -------------------------------------------------

------------------------------------------------------------------------
 * finished run on 2025/08/11 at 13:40:53.017     
------------------------------------------------------------------------
 total:
 * wall-time:     0 d,  0 h,  0 min,  0.014 sec
 *  cpu-time:     0 d,  0 h,  0 min,  0.010 sec
 * ratio c/w:     0.707 speedup
 SCF:
 * wall-time:     0 d,  0 h,  0 min,  0.009 sec
 *  cpu-time:     0 d,  0 h,  0 min,  0.005 sec
 * ratio c/w:     0.522 speedup


-------------------------   --------------------
FINAL SINGLE POINT ENERGY       -25.091628923800
-------------------------   --------------------


-------------
DIPOLE MOMENT
-------------
                                X             Y             Z
Total Dipole Moment    :     -0.03000      -0.21100       0.08200
                        -----------------------------------------
Magnitude (a.u.)       :      0.22835
Magnitude (Debye)      :      0.58043


------------------
CARTESIAN GRADIENT
------------------

   1   C   :    0.004578543   -0.005237903   -0.020432456
   2   C   :   -0.022658212   -0.000483266    0.006607027
   3   H   :    0.003592956   -0.001267221    0.005725576
   4   H   :    0.006239855    0.003595262    0.004513636
   5   O   :   -0.013325886    0.012017866    0.007744997
   6   C   :    0.004055081    0.009253125   -0.007111524
   7   H   :    0.008596664   -0.004389519   -0.003314436
   8   N   :   -0.019091306    0.005860989    0.001914609
   9   O   :    0.029819850   -0.004635923   -0.007691017
  10   O   :   -0.000950589    0.002749574    0.007933680
  11   H   :    0.000230499    0.001997989    0.000904741
  12   H   :    0.001705050   -0.003587927    0.002919314
  13   H   :   -0.002098762   -0.005529522    0.003069233
  14   H   :   -0.000693742   -0.010343525   -0.002783380

Difference to translation invariance:
           :    0.0000000000    0.0000000000   -0.0000000000

Difference to rotation invariance:
           :    0.0000000402   -0.0000000117    0.0000000711

Norm of the Cartesian gradient     ...    0.0584297605
RMS gradient                       ...    0.0090159078
MAX gradient                       ...    0.0298198496
------------------------------------------------------------------------------
                         ORCA GEOMETRY RELAXATION STEP
------------------------------------------------------------------------------

Reading the OPT-File                    .... done
Getting information on internals        .... done
Copying old internal coords+grads       .... done
Making the new internal coordinates     .... (2022 redundants) done
Validating the new internal coordinates .... (2022 redundants) done
Calculating the B-matrix                .... done
Calculating the G,G- and P matrices     .... done
Transforming gradient to internals      .... done
Projecting the internal gradient        .... done
Number of atoms                         ....  14
Number of internal coordinates          ....  56
Current Energy                          ....   -25.091628924 Eh
Current gradient norm                   ....     0.058429761 Eh/bohr
Maximum allowed component of the step   ....  0.300
Current trust radius                    ....  0.300
Evaluating the initial hessian          ....  (Almloef) done
Projecting the Hessian                  .... done
Forming the augmented Hessian           .... done
Diagonalizing the augmented Hessian     .... done
Last element of RFO vector              ....  0.976272950
Lowest eigenvalues of augmented Hessian:
 -0.005769384  0.010322288  0.010800684  0.012414041  0.016723154
Length of the computed step             ....  0.221806401
The final length of the internal step   ....  0.221806401
Converting the step to Cartesian space:
 Initial RMS(Int)=    0.0296401271
Transforming coordinates:
 Iter   0:  RMS(Cart)=    0.0536995932 RMS(Int)=    0.8370055363
 Iter   5:  RMS(Cart)=    0.0000000085 RMS(Int)=    0.0000000065
done
Storing new coordinates                 .... done

                                .--------------------.
          ----------------------|Geometry convergence|-------------------------
          Item                value                   Tolerance       Converged
          ---------------------------------------------------------------------
          RMS gradient        0.0064427978            0.0001000000      NO
          MAX gradient        0.0305173165            0.0003000000      NO
          RMS step            0.0296401271            0.0020000000      NO
          MAX step            0.1116430926            0.0040000000      NO
          -------------------------------------------------------------------------
          ........................................................
          Max(Bonds)      0.0591      Max(Angles)    2.19
          Max(Dihed)        3.79      Max(Improp)    0.00
          ---------------------------------------------------------------------

    ---------------------------------------------------------------------------
                         Redundant Internal Coordinates
                            (Angstroem and degrees)

        Definition                    Value    dE/dq     Step     New-Value
    ----------------------------------------------------------------------------
     1. B(C   1,C   0)                1.5316  0.005986 -0.0079    1.5238   
     2. B(O   4,H   3)                2.1057 -0.002170  0.0591    2.1648   
     3. B(O   4,C   1)                1.3544  0.008999 -0.0074    1.3470   
     4. B(C   5,C   0)                1.5339  0.005536 -0.0106    1.5234   
     5. B(H   6,O   4)                0.9802  0.006683 -0.0072    0.9730   
     6. B(N   7,H   3)                1.0246  0.005618 -0.0073    1.0173   
     7. B(N   7,H   2)                1.0260  0.006455 -0.0072    1.0188   
     8. B(N   7,C   0)                1.4892  0.016515 -0.0240    1.4652   
     9. B(O   8,C   1)                1.2215  0.030517 -0.0155    1.2061   
    10. B(O   9,H   2)                2.2599  0.002342 -0.0042    2.2557   
    11. B(O   9,C   5)                1.4328  0.007011 -0.0080    1.4248   
    12. B(H  10,C   0)                1.0952 -0.000229  0.0003    1.0956   
    13. B(H  11,C   5)                1.0952 -0.001391  0.0021    1.0973   
    14. B(H  12,C   5)                1.0946 -0.001037  0.0015    1.0961   
    15. B(H  13,O   9)                0.9734  0.010468 -0.0111    0.9623   
    16. A(C   1,C   0,N   7)          111.54 -0.004200    1.67    113.21   
    17. A(C   1,C   0,C   5)          109.47  0.003343   -0.30    109.17   
    18. A(N   7,C   0,H  10)          108.37  0.002337   -0.41    107.96   
    19. A(C   5,C   0,N   7)          110.35 -0.002567   -0.06    110.29   
    20. A(C   1,C   0,H  10)          106.58 -0.000302   -0.06    106.52   
    21. A(C   5,C   0,H  10)          110.46  0.001493   -0.86    109.60   
    22. A(C   0,C   1,O   8)          126.53  0.006279   -0.78    125.75   
    23. A(C   0,C   1,O   4)          113.60  0.001273    0.02    113.63   
    24. A(O   4,C   1,O   8)          119.78 -0.007606    0.96    120.74   
    25. A(C   1,O   4,H   6)          103.67 -0.014277    2.19    105.86   
    26. A(C   0,C   5,H  11)          110.10  0.002618   -0.38    109.72   
    27. A(H  11,C   5,H  12)          108.62 -0.000700    0.61    109.23   
    28. A(C   0,C   5,O   9)          110.33  0.004786   -1.51    108.81   
    29. A(O   9,C   5,H  12)          108.25 -0.006937    1.17    109.42   
    30. A(C   0,C   5,H  12)          111.80  0.005526   -1.33    110.48   
    31. A(O   9,C   5,H  11)          107.62 -0.005948    1.61    109.23   
    32. A(C   0,N   7,H   3)          106.83 -0.001848    0.84    107.67   
    33. A(C   0,N   7,H   2)          105.78 -0.006717    0.93    106.71   
    34. A(H   2,N   7,H   3)          104.22 -0.000758    1.36    105.58   
    35. A(C   5,O   9,H  13)          106.61 -0.004339    0.70    107.30   
    36. D(O   8,C   1,C   0,C   5)     46.64  0.002916   -2.69     43.95   
    37. D(O   4,C   1,C   0,N   7)    -14.48 -0.002160    2.04    -12.44   
    38. D(O   4,C   1,C   0,C   5)   -136.90  0.001588    1.21   -135.69   
    39. D(O   4,C   1,C   0,H  10)    103.62 -0.001826    2.43    106.05   
    40. D(O   8,C   1,C   0,N   7)    169.07 -0.000833   -1.86    167.20   
    41. D(H   6,O   4,C   1,O   8)     -2.75 -0.000614    2.15     -0.59   
    42. D(H   6,O   4,C   1,C   0)   -179.46  0.000098   -1.39   -180.86   
    43. D(H  11,C   5,C   0,H  10)    -51.54 -0.000142   -1.88    -53.42   
    44. D(H  11,C   5,C   0,N   7)     68.28  0.002075   -2.99     65.29   
    45. D(H  11,C   5,C   0,C   1)   -168.59 -0.002655   -1.13   -169.72   
    46. D(O   9,C   5,C   0,H  10)   -170.18  0.002601   -2.69   -172.87   
    47. D(O   9,C   5,C   0,N   7)    -50.36  0.004818   -3.79    -54.15   
    48. D(O   9,C   5,C   0,C   1)     72.77  0.000088   -1.94     70.83   
    49. D(H   2,N   7,C   0,C   5)     42.65  0.000947    0.10     42.75   
    50. D(H   2,N   7,C   0,C   1)    -79.26  0.001344   -0.61    -79.88   
    51. D(H   3,N   7,C   0,C   5)    153.27 -0.003559    2.39    155.66   
    52. D(H   3,N   7,C   0,C   1)     31.36 -0.003162    1.67     33.03   
    53. D(H   2,N   7,C   0,H  10)    163.72  0.002692   -1.25    162.47   
    54. D(H  13,O   9,C   5,H  12)    -60.35  0.004176   -0.99    -61.34   
    55. D(H  13,O   9,C   5,H  11)     56.88 -0.003482    1.20     58.08   
    56. D(H  13,O   9,C   5,C   0)    177.02 -0.001158    0.84    177.86   
    ----------------------------------------------------------------------------

Geometry step timings:
Preparation and reading OPT file:      0.000 s ( 1.858 %)
Internal coordinates            :      0.000 s ( 1.961 %)
B/P matrices and projection     :      0.000 s (33.643 %)
Hessian update/contruction      :      0.000 s (13.519 %)
Making the step                 :      0.000 s (20.124 %)
Converting the step to Cartesian:      0.000 s ( 3.922 %)
Storing new data                :      0.000 s ( 1.858 %)
Checking convergence            :      0.000 s ( 2.064 %)
Final printing                  :      0.000 s (21.053 %)
Total time                      :      0.001 s

Time for energy+gradient        :      0.018 s
Time for complete geometry iter :      0.020 s

         *************************************************************
         *                GEOMETRY OPTIMIZATION CYCLE   2            *
         *************************************************************
---------------------------------
CARTESIAN COORDINATES (ANGSTROEM)
---------------------------------
  C    -1.924980    3.019906   -0.371199
  C    -0.550965    3.540270    0.032781
  H    -3.001013    2.975480    1.326293
  H    -2.755943    4.474792    0.759621
  O    -0.597924    4.566649    0.903904
  C    -1.910752    1.496970   -0.344622
  H     0.328150    4.797242    1.093254
  N    -3.007635    3.531844    0.472768
  O     0.506822    3.108808   -0.353918
  O    -1.847892    1.062460    1.010791
  H    -2.101043    3.368065   -1.394931
  H    -2.827980    1.109827   -0.805957
  H    -1.042116    1.111975   -0.891118
  H    -1.874251    0.100506    1.004504

----------------------------
CARTESIAN COORDINATES (A.U.)
----------------------------
  NO LB    ZA    FRAG    MASS        X           Y           Z
   0 C   6.0000    1    12.011   -3.637684    5.706795   -0.701465
   1 C   6.0000    1    12.011   -1.041173    6.690141    0.061947
   2 H   1.0000    1     1.008   -5.671093    5.622843    2.506331
   3 H   1.0000    1     1.008   -5.207978    8.456132    1.435475
   4 O   8.0000    1    15.999   -1.129912    8.629715    1.708131
   5 C   6.0000    1    12.011   -3.610798    2.828863   -0.651242
   6 H   1.0000    1     1.008    0.620113    9.065473    2.065950
   7 N   7.0000    1    14.007   -5.683607    6.674217    0.893403
   8 O   8.0000    1    15.999    0.957754    5.874795   -0.668808
   9 O   8.0000    1    15.999   -3.492010    2.007759    1.910119
  10 H   1.0000    1     1.008   -3.970395    6.364721   -2.636038
  11 H   1.0000    1     1.008   -5.344108    2.097269   -1.523039
  12 H   1.0000    1     1.008   -1.969314    2.101329   -1.683969
  13 H   1.0000    1     1.008   -3.541821    0.189928    1.898237

      -----------------------------------------------------------      
     |                   =====================                   |     
     |                           x T B                           |     
     |                   =====================                   |     
     |                         S. Grimme                         |     
     |          Mulliken Center for Theoretical Chemistry        |     
     |                    University of Bonn                     |     
      -----------------------------------------------------------      

   * xtb version 6.7.1 (edcfbbe) compiled by 'albert@albert-system' on 2024-07-22

   xtb is free software: you can redistribute it and/or modify it under
   the terms of the GNU Lesser General Public License as published by
   the Free Software Foundation, either version 3 of the License, or
   (at your option) any later version.
   
   xtb is distributed in the hope that it will be useful,
   but WITHOUT ANY WARRANTY; without even the implied warranty of
   MERCHANTABILITY or FITNESS FOR A PARTICULAR PURPOSE.  See the
   GNU Lesser General Public License for more details.
   
   Cite this work as:
   * C. Bannwarth, E. Caldeweyher, S. Ehlert, A. Hansen, P. Pracht,
     J. Seibert, S. Spicher, S. Grimme, WIREs Comput. Mol. Sci., 2020, 11,
     e01493. DOI: 10.1002/wcms.1493
   
   for GFN2-xTB:
   * C. Bannwarth, S. Ehlert and S. Grimme., J. Chem. Theory Comput., 2019,
     15, 1652-1671. DOI: 10.1021/acs.jctc.8b01176
   for GFN1-xTB:
   * S. Grimme, C. Bannwarth, P. Shushkov, J. Chem. Theory Comput., 2017,
     13, 1989-2009. DOI: 10.1021/acs.jctc.7b00118
   for GFN0-xTB:
   * P. Pracht, E. Caldeweyher, S. Ehlert, S. Grimme, ChemRxiv, 2019, preprint.
     DOI: 10.26434/chemrxiv.8326202.v1
   for GFN-FF:
   * S. Spicher and S. Grimme, Angew. Chem. Int. Ed., 2020, 59, 15665-15673.
     DOI: 10.1002/anie.202004239
   
   for ALPB and GBSA implicit solvation:
   * S. Ehlert, M. Stahn, S. Spicher, S. Grimme, J. Chem. Theory Comput.,
     2021, 17, 4250-4261. DOI: 10.1021/acs.jctc.1c00471
   
   for ddCOSMO and CPCM-X implicit solvation:
   * M. Stahn, S. Ehlert, S. Grimme, J. Phys. Chem. A,
     2023, XX, XXXX-XXXX. DOI: 10.1021/acs.jpca.3c04382
   
   for DFT-D4:
   * E. Caldeweyher, C. Bannwarth and S. Grimme, J. Chem. Phys., 2017,
     147, 034112. DOI: 10.1063/1.4993215
   * E. Caldeweyher, S. Ehlert, A. Hansen, H. Neugebauer, S. Spicher,
     C. Bannwarth and S. Grimme, J. Chem. Phys., 2019, 150, 154122.
     DOI: 10.1063/1.5090222
   * E. Caldeweyher, J.-M. Mewes, S. Ehlert and S. Grimme, Phys. Chem. Chem. Phys.
     2020, 22, 8499-8512. DOI: 10.1039/D0CP00502A
   
   for sTDA-xTB:
   * S. Grimme and C. Bannwarth, J. Chem. Phys., 2016, 145, 054103.
     DOI: 10.1063/1.4959605
   
   in the mass-spec context:
   * V. Asgeirsson, C. Bauer and S. Grimme, Chem. Sci., 2017, 8, 4879.
     DOI: 10.1039/c7sc00601b
   * J. Koopman and S. Grimme, ACS Omega 2019, 4, 12, 15120-15133.
     DOI: 10.1021/acsomega.9b02011
   
   for metadynamics refer to:
   * S. Grimme, J. Chem. Theory Comput., 2019, 155, 2847-2862
     DOI: 10.1021/acs.jctc.9b00143
   
   for SPH calculations refer to:
   * S. Spicher and S. Grimme, J. Chem. Theory Comput., 2021, 17, 1701-1714
     DOI: 10.1021/acs.jctc.0c01306
   
   for ONIOM refer to:
   * C. Plett, A. Katbashev, S. Ehlert, S. Grimme, M. Bursch,
     Phys. Chem. Chem. Phys., 2023, 25, 17860-17868. DOI: 10.1039/D3CP02178E
   
   for DIPRO refer to:
   * J. Kohn, N. Gildemeister, S. Grimme, D. Fazzi, A. Hansen,
     J. Chem. Phys., 2023, just accepted.
   
   for PTB refer to:
   * S. Grimme, M. Mueller, A. Hansen, J. Chem. Phys., 2023, 158, 124111.
     DOI: 10.1063/5.0137838
   
   with help from (in alphabetical order)
   P. Atkinson, C. Bannwarth, F. Bohle, G. Brandenburg, E. Caldeweyher
   M. Checinski, S. Dohm, S. Ehlert, S. Ehrlich, I. Gerasimov, C. Hölzer
   A. Katbashev, J. Kohn, J. Koopman, C. Lavigne, S. Lehtola, F. März, M. Müller,
   F. Musil, H. Neugebauer, J. Pisarek, C. Plett, P. Pracht, F. Pultar,
   J. Seibert, P. Shushkov, S. Spicher, M. Stahn, M. Steiner, T. Strunk,
   J. Stückrath, T. Rose, and J. Unsleber
   
 * started run on 2025/08/11 at 13:40:53.022     
   ID    Z sym.   atoms
    1    6 C      1, 2, 6
    2    1 H      3, 4, 7, 11-14
    3    8 O      5, 9, 10
    4    7 N      8

           -------------------------------------------------
          |                Calculation Setup                |
           -------------------------------------------------

          program call               : /home/test/orca/orca_6_1_0_linux_x86-64_shared_openmpi418/otool_xtb s_XTB.xyz --grad -c 0 -u 0 -P 1 --namespace s --input s_XTB.input.tmp --acc 0.200000
          calculation namespace      : s
          coordinate file            : s_XTB.xyz
          omp threads                :                     1


           -------------------------------------------------
          |                 G F N 2 - x T B                 |
           -------------------------------------------------

        Reference                      10.1021/acs.jctc.8b01176
      * Hamiltonian:
        H0-scaling (s, p, d)           1.850000    2.230000    2.230000
        zeta-weighting                 0.500000
      * Dispersion:
        s8                             2.700000
        a1                             0.520000
        a2                             5.000000
        s9                             5.000000
      * Repulsion:
        kExp                           1.500000    1.000000
        rExp                           1.000000
      * Coulomb:
        alpha                          2.000000
        third order                    shell-resolved
        anisotropic                    true
        a3                             3.000000
        a5                             4.000000
        cn-shift                       1.200000
        cn-exp                         4.000000
        max-rad                        5.000000

q/qsh data taken from xtbrestart
CAMM data taken from xtbrestart

          ...................................................
          :                      SETUP                      :
          :.................................................:
          :  # basis functions                  35          :
          :  # atomic orbitals                  35          :
          :  # shells                           21          :
          :  # electrons                        42          :
          :  max. iterations                   250          :
          :  Hamiltonian                  GFN2-xTB          :
          :  restarted?                       true          :
          :  GBSA solvation                  false          :
          :  PC potential                    false          :
          :  electronic temp.          300.0000000     K    :
          :  accuracy                    0.2000000          :
          :  -> integral cutoff          0.3198970E+02      :
          :  -> integral neglect         0.2000000E-08      :
          :  -> SCF convergence          0.2000000E-06 Eh   :
          :  -> wf. convergence          0.2000000E-04 e    :
          :  Broyden damping             0.4000000          :
          :  net charge                          0          :
          :  unpaired electrons                  0          :
          ...................................................

 iter      E             dE          RMSdq      gap      omega  full diag
   1    -25.3044055 -0.253044E+02  0.206E-01    3.60       0.0  T
   2    -25.3044426 -0.371036E-04  0.122E-01    3.56       1.0  T
   3    -25.3044377  0.486612E-05  0.445E-02    3.57       1.0  T
   4    -25.3044480 -0.103120E-04  0.627E-03    3.56       4.3  T
   5    -25.3044481 -0.884116E-07  0.347E-03    3.56       7.7  T
   6    -25.3044481 -0.116438E-07  0.907E-04    3.56      29.5  T
   7    -25.3044481 -0.118331E-08  0.381E-04    3.56      70.2  T
   8    -25.3044481 -0.195367E-09  0.788E-05    3.56     339.3  T
   9    -25.3044481 -0.594724E-11  0.202E-05    3.56    1324.8  T

   *** convergence criteria satisfied after 9 iterations ***

         #    Occupation            Energy/Eh            Energy/eV
      -------------------------------------------------------------
         1        2.0000           -0.7533834             -20.5006
       ...           ...                  ...                  ...
        15        2.0000           -0.5025583             -13.6753
        16        2.0000           -0.4850646             -13.1993
        17        2.0000           -0.4758024             -12.9472
        18        2.0000           -0.4621323             -12.5753
        19        2.0000           -0.4391412             -11.9496
        20        2.0000           -0.4243736             -11.5478
        21        2.0000           -0.3755595             -10.2195 (HOMO)
        22                         -0.2447869              -6.6610 (LUMO)
        23                          0.0081292               0.2212
        24                          0.0301165               0.8195
        25                          0.0697945               1.8992
        26                          0.0987037               2.6859
       ...                                ...                  ...
        35                          0.6113715              16.6363
      -------------------------------------------------------------
                  HL-Gap            0.1307725 Eh            3.5585 eV
             Fermi-level           -0.3101732 Eh           -8.4402 eV

 SCC (total)                   0 d,  0 h,  0 min,  0.006 sec
 SCC setup                      ...        0 min,  0.000 sec (  2.421%)
 Dispersion                     ...        0 min,  0.000 sec (  1.089%)
 classical contributions        ...        0 min,  0.000 sec (  0.275%)
 integral evaluation            ...        0 min,  0.001 sec ( 19.565%)
 iterations                     ...        0 min,  0.003 sec ( 54.095%)
 molecular gradient             ...        0 min,  0.001 sec ( 21.451%)
 printout                       ...        0 min,  0.000 sec (  0.860%)

         :::::::::::::::::::::::::::::::::::::::::::::::::::::
         ::                     SUMMARY                     ::
         :::::::::::::::::::::::::::::::::::::::::::::::::::::
         :: total energy             -25.095625577028 Eh    ::
         :: gradient norm              0.026068298673 Eh/a0 ::
         :: HOMO-LUMO gap              3.558501849103 eV    ::
         ::.................................................::
         :: SCC energy               -25.304430570451 Eh    ::
         :: -> isotropic ES            0.081643633383 Eh    ::
         :: -> anisotropic ES          0.001399634576 Eh    ::
         :: -> anisotropic XC          0.003486454742 Eh    ::
         :: -> dispersion             -0.008235191562 Eh    ::
         :: repulsion energy           0.208804993423 Eh    ::
         :: add. restraining           0.000000000000 Eh    ::
         :: total charge               0.000000000000 e     ::
         :::::::::::::::::::::::::::::::::::::::::::::::::::::


Property printout bound to 'properties.out'

           -------------------------------------------------
          | TOTAL ENERGY              -25.095625577028 Eh   |
          | GRADIENT NORM               0.026068298673 Eh/α |
          | HOMO-LUMO GAP               3.558501849103 eV   |
           -------------------------------------------------

------------------------------------------------------------------------
 * finished run on 2025/08/11 at 13:40:53.035     
------------------------------------------------------------------------
 total:
 * wall-time:     0 d,  0 h,  0 min,  0.012 sec
 *  cpu-time:     0 d,  0 h,  0 min,  0.011 sec
 * ratio c/w:     0.907 speedup
 SCF:
 * wall-time:     0 d,  0 h,  0 min,  0.006 sec
 *  cpu-time:     0 d,  0 h,  0 min,  0.005 sec
 * ratio c/w:     0.828 speedup


-------------------------   --------------------
FINAL SINGLE POINT ENERGY       -25.095625577030
-------------------------   --------------------


-------------
DIPOLE MOMENT
-------------
                                X             Y             Z
Total Dipole Moment    :     -0.05300      -0.16400       0.12300
                        -----------------------------------------
Magnitude (a.u.)       :      0.21174
Magnitude (Debye)      :      0.53820


------------------
CARTESIAN GRADIENT
------------------

   1   C   :    0.004558756   -0.007031762   -0.007398926
   2   C   :   -0.008601054    0.000859741   -0.004120338
   3   H   :    0.002397365    0.000122150    0.001144969
   4   H   :    0.004194728   -0.000388867    0.001756925
   5   O   :   -0.005191352    0.005249691    0.005489319
   6   C   :    0.001441808    0.009480812   -0.004544778
   7   H   :    0.003152453   -0.003383787   -0.002837246
   8   N   :   -0.008673107    0.002575063    0.000469426
   9   O   :    0.007855963   -0.000782040    0.001264428
  10   O   :   -0.000165798   -0.001973611    0.005569440
  11   H   :   -0.000252700    0.000822302    0.002558271
  12   H   :    0.000333305   -0.001988113    0.000814846
  13   H   :   -0.000582180   -0.002697116    0.001751919
  14   H   :   -0.000468186   -0.000864464   -0.001918254

Difference to translation invariance:
           :   -0.0000000000   -0.0000000000    0.0000000000

Difference to rotation invariance:
           :   -0.0000001259   -0.0000001405    0.0000000992

Norm of the Cartesian gradient     ...    0.0260682987
RMS gradient                       ...    0.0040224258
MAX gradient                       ...    0.0094808120
------------------------------------------------------------------------------
                         ORCA GEOMETRY RELAXATION STEP
------------------------------------------------------------------------------

Reading the OPT-File                    .... done
Getting information on internals        .... done
Copying old internal coords+grads       .... done
Making the new internal coordinates     .... (2022 redundants) done
Validating the new internal coordinates .... (2022 redundants) done
Calculating the B-matrix                .... done
Calculating the G,G- and P matrices     .... done
Transforming gradient to internals      .... done
Projecting the internal gradient        .... done
Number of atoms                         ....  14
Number of internal coordinates          ....  56
Current Energy                          ....   -25.095625577 Eh
Current gradient norm                   ....     0.026068299 Eh/bohr
Maximum allowed component of the step   ....  0.300
Current trust radius                    ....  0.300
Updating the Hessian (BFGS)             .... done
Forming the augmented Hessian           .... done
Diagonalizing the augmented Hessian     .... done
Last element of RFO vector              ....  0.955599470
Lowest eigenvalues of augmented Hessian:
 -0.003237725  0.010327839  0.010608041  0.012325970  0.019386271
Length of the computed step             ....  0.308360069
Warning: the length of the step is outside the trust region - taking restricted step instead
The input lambda is                     ....     0.009140
   iter:   5  x=    0.001926  g=   93.975183 f(x)=     0.251610
   iter:  10  x=   -0.003775  g=    9.025677 f(x)=     0.000001
The output lambda is                    ....    -0.003775 (12 iterations)
The final length of the internal step   ....  0.300000000
Converting the step to Cartesian space:
 Initial RMS(Int)=    0.0400891863
Transforming coordinates:
 Iter   0:  RMS(Cart)=    0.0479091978 RMS(Int)=    0.8327897838
 Iter   5:  RMS(Cart)=    0.0000000307 RMS(Int)=    0.0000000274
done
Storing new coordinates                 .... done
The predicted energy change is          ....    -0.001763888
Previously predicted energy change      ....    -0.003026613
Actually observed energy change         ....    -0.003996653
Ratio of predicted to observed change   ....     1.320503356
New trust radius                        ....     0.300000000

                                .--------------------.
          ----------------------|Geometry convergence|-------------------------
          Item                value                   Tolerance       Converged
          ---------------------------------------------------------------------
          Energy change      -0.0039966532            0.0000050000      NO
          RMS gradient        0.0026052760            0.0001000000      NO
          MAX gradient        0.0095050411            0.0003000000      NO
          RMS step            0.0400891863            0.0020000000      NO
          MAX step            0.1563327029            0.0040000000      NO
          -------------------------------------------------------------------------
          ........................................................
          Max(Bonds)      0.0827      Max(Angles)    3.03
          Max(Dihed)        5.28      Max(Improp)    0.00
          ---------------------------------------------------------------------

    ---------------------------------------------------------------------------
                         Redundant Internal Coordinates
                            (Angstroem and degrees)

        Definition                    Value    dE/dq     Step     New-Value
    ----------------------------------------------------------------------------
     1. B(C   1,C   0)                1.5238 -0.000193 -0.0012    1.5225   
     2. B(O   4,H   3)                2.1648 -0.001834  0.0827    2.2475   
     3. B(O   4,C   1)                1.3470  0.003282 -0.0067    1.3403   
     4. B(C   5,C   0)                1.5232 -0.002063 -0.0001    1.5232   
     5. B(H   6,O   4)                0.9730  0.001646 -0.0053    0.9677   
     6. B(N   7,H   3)                1.0172  0.000614 -0.0040    1.0132   
     7. B(N   7,H   2)                1.0189  0.000966 -0.0040    1.0149   
     8. B(N   7,C   0)                1.4651  0.005416 -0.0197    1.4454   
     9. B(O   8,C   1)                1.2061  0.006764 -0.0107    1.1954   
    10. B(O   9,H   2)                2.2559  0.000165  0.0199    2.2757   
    11. B(O   9,C   5)                1.4247  0.004287 -0.0102    1.4145   
    12. B(H  10,C   0)                1.0956 -0.002089  0.0050    1.1005   
    13. B(H  11,C   5)                1.0973  0.000080  0.0005    1.0978   
    14. B(H  12,C   5)                1.0961 -0.000388  0.0014    1.0975   
    15. B(H  13,O   9)                0.9623  0.000889 -0.0052    0.9571   
    16. A(C   1,C   0,N   7)          113.22 -0.002127    1.95    115.17   
    17. A(C   1,C   0,C   5)          109.17  0.001656   -0.61    108.56   
    18. A(N   7,C   0,H  10)          107.97  0.000064   -0.04    107.93   
    19. A(C   5,C   0,N   7)          110.26 -0.000559   -0.13    110.12   
    20. A(C   1,C   0,H  10)          106.51  0.000036   -0.08    106.43   
    21. A(C   5,C   0,H  10)          109.61  0.001018   -1.13    108.48   
    22. A(C   0,C   1,O   8)          125.71  0.002924   -1.07    124.64   
    23. A(C   0,C   1,O   4)          113.59  0.003142   -0.65    112.94   
    24. A(O   4,C   1,O   8)          120.70 -0.006075    1.27    121.96   
    25. A(C   1,O   4,H   6)          105.86 -0.009505    3.03    108.89   
    26. A(C   0,C   5,H  11)          109.73  0.001141   -0.46    109.27   
    27. A(H  11,C   5,H  12)          109.20 -0.000003    0.54    109.74   
    28. A(C   0,C   5,O   9)          108.78  0.002854   -1.55    107.23   
    29. A(O   9,C   5,H  12)          109.40 -0.003852    1.39    110.79   
    30. A(C   0,C   5,H  12)          110.48  0.002575   -1.45    109.03   
    31. A(O   9,C   5,H  11)          109.22 -0.002793    1.65    110.87   
    32. A(C   0,N   7,H   3)          107.67 -0.002473    1.55    109.22   
    33. A(C   0,N   7,H   2)          106.68 -0.003100    1.31    107.99   
    34. A(H   2,N   7,H   3)          105.57 -0.000349    1.75    107.32   
    35. A(C   5,O   9,H  13)          107.30 -0.003517    1.12    108.42   
    36. D(O   8,C   1,C   0,C   5)     43.97 -0.000566    4.55     48.53   
    37. D(O   4,C   1,C   0,N   7)    -12.46  0.000459   -1.52    -13.98   
    38. D(O   4,C   1,C   0,C   5)   -135.69  0.001437   -2.24   -137.94   
    39. D(O   4,C   1,C   0,H  10)    106.04 -0.000651   -0.53    105.51   
    40. D(O   8,C   1,C   0,N   7)    167.20 -0.001544    5.28    172.48   
    41. D(H   6,O   4,C   1,O   8)     -0.57  0.000893   -2.98     -3.55   
    42. D(H   6,O   4,C   1,C   0)    179.12 -0.000967    3.33    182.45   
    43. D(H  11,C   5,C   0,H  10)    -53.43  0.000478   -2.74    -56.16   
    44. D(H  11,C   5,C   0,N   7)     65.29  0.000844   -3.58     61.72   
    45. D(H  11,C   5,C   0,C   1)   -169.73 -0.001081   -1.62   -171.35   
    46. D(O   9,C   5,C   0,H  10)   -172.86  0.001477   -3.53   -176.39   
    47. D(O   9,C   5,C   0,N   7)    -54.14  0.001842   -4.37    -58.51   
    48. D(O   9,C   5,C   0,C   1)     70.84 -0.000083   -2.42     68.42   
    49. D(H   2,N   7,C   0,C   5)     42.75  0.000905    0.38     43.13   
    50. D(H   2,N   7,C   0,C   1)    -79.88  0.000684   -0.09    -79.97   
    51. D(H   3,N   7,C   0,C   5)    155.66 -0.002097    3.61    159.27   
    52. D(H   3,N   7,C   0,C   1)     33.03 -0.002318    3.13     36.17   
    53. D(H   2,N   7,C   0,H  10)    162.46  0.001854   -1.09    161.37   
    54. D(H  13,O   9,C   5,H  12)    -61.37  0.001989   -0.60    -61.97   
    55. D(H  13,O   9,C   5,H  11)     58.11 -0.002005    1.74     59.85   
    56. D(H  13,O   9,C   5,C   0)    177.86 -0.000571    1.27    179.13   
    ----------------------------------------------------------------------------

Geometry step timings:
Preparation and reading OPT file:      0.000 s ( 1.068 %)
Internal coordinates            :      0.000 s ( 1.748 %)
B/P matrices and projection     :      0.000 s (26.408 %)
Hessian update/contruction      :      0.000 s (11.553 %)
Making the step                 :      0.000 s (32.524 %)
Converting the step to Cartesian:      0.000 s ( 3.204 %)
Storing new data                :      0.000 s ( 1.456 %)
Checking convergence            :      0.000 s ( 2.524 %)
Final printing                  :      0.000 s (19.417 %)
Total time                      :      0.001 s

Time for energy+gradient        :      0.016 s
Time for complete geometry iter :      0.017 s

         *************************************************************
         *                GEOMETRY OPTIMIZATION CYCLE   3            *
         *************************************************************
---------------------------------
CARTESIAN COORDINATES (ANGSTROEM)
---------------------------------
  C    -1.915676    3.018819   -0.346869
  C    -0.531678    3.498923    0.068369
  H    -3.049625    2.967576    1.305660
  H    -2.808380    4.476014    0.729087
  O    -0.569632    4.535505    0.917171
  C    -1.921852    1.495996   -0.342739
  H     0.336230    4.816558    1.109166
  N    -3.007540    3.520948    0.455762
  O     0.494923    3.092534   -0.389755
  O    -1.810534    1.082065    1.005226
  H    -2.067377    3.365902   -1.380132
  H    -2.859238    1.135764   -0.786206
  H    -1.070719    1.132770   -0.932767
  H    -1.826426    0.125420    1.030196

----------------------------
CARTESIAN COORDINATES (A.U.)
----------------------------
  NO LB    ZA    FRAG    MASS        X           Y           Z
   0 C   6.0000    1    12.011   -3.620104    5.704742   -0.655488
   1 C   6.0000    1    12.011   -1.004726    6.612007    0.129198
   2 H   1.0000    1     1.008   -5.762957    5.607906    2.467340
   3 H   1.0000    1     1.008   -5.307068    8.458440    1.377775
   4 O   8.0000    1    15.999   -1.076448    8.570862    1.733201
   5 C   6.0000    1    12.011   -3.631774    2.827022   -0.647682
   6 H   1.0000    1     1.008    0.635382    9.101975    2.096020
   7 N   7.0000    1    14.007   -5.683427    6.653627    0.861266
   8 O   8.0000    1    15.999    0.935270    5.844043   -0.736530
   9 O   8.0000    1    15.999   -3.421413    2.044806    1.899601
  10 H   1.0000    1     1.008   -3.906776    6.360633   -2.608071
  11 H   1.0000    1     1.008   -5.403177    2.146282   -1.485713
  12 H   1.0000    1     1.008   -2.023365    2.140626   -1.762675
  13 H   1.0000    1     1.008   -3.451444    0.237010    1.946789

      -----------------------------------------------------------      
     |                   =====================                   |     
     |                           x T B                           |     
     |                   =====================                   |     
     |                         S. Grimme                         |     
     |          Mulliken Center for Theoretical Chemistry        |     
     |                    University of Bonn                     |     
      -----------------------------------------------------------      

   * xtb version 6.7.1 (edcfbbe) compiled by 'albert@albert-system' on 2024-07-22

   xtb is free software: you can redistribute it and/or modify it under
   the terms of the GNU Lesser General Public License as published by
   the Free Software Foundation, either version 3 of the License, or
   (at your option) any later version.
   
   xtb is distributed in the hope that it will be useful,
   but WITHOUT ANY WARRANTY; without even the implied warranty of
   MERCHANTABILITY or FITNESS FOR A PARTICULAR PURPOSE.  See the
   GNU Lesser General Public License for more details.
   
   Cite this work as:
   * C. Bannwarth, E. Caldeweyher, S. Ehlert, A. Hansen, P. Pracht,
     J. Seibert, S. Spicher, S. Grimme, WIREs Comput. Mol. Sci., 2020, 11,
     e01493. DOI: 10.1002/wcms.1493
   
   for GFN2-xTB:
   * C. Bannwarth, S. Ehlert and S. Grimme., J. Chem. Theory Comput., 2019,
     15, 1652-1671. DOI: 10.1021/acs.jctc.8b01176
   for GFN1-xTB:
   * S. Grimme, C. Bannwarth, P. Shushkov, J. Chem. Theory Comput., 2017,
     13, 1989-2009. DOI: 10.1021/acs.jctc.7b00118
   for GFN0-xTB:
   * P. Pracht, E. Caldeweyher, S. Ehlert, S. Grimme, ChemRxiv, 2019, preprint.
     DOI: 10.26434/chemrxiv.8326202.v1
   for GFN-FF:
   * S. Spicher and S. Grimme, Angew. Chem. Int. Ed., 2020, 59, 15665-15673.
     DOI: 10.1002/anie.202004239
   
   for ALPB and GBSA implicit solvation:
   * S. Ehlert, M. Stahn, S. Spicher, S. Grimme, J. Chem. Theory Comput.,
     2021, 17, 4250-4261. DOI: 10.1021/acs.jctc.1c00471
   
   for ddCOSMO and CPCM-X implicit solvation:
   * M. Stahn, S. Ehlert, S. Grimme, J. Phys. Chem. A,
     2023, XX, XXXX-XXXX. DOI: 10.1021/acs.jpca.3c04382
   
   for DFT-D4:
   * E. Caldeweyher, C. Bannwarth and S. Grimme, J. Chem. Phys., 2017,
     147, 034112. DOI: 10.1063/1.4993215
   * E. Caldeweyher, S. Ehlert, A. Hansen, H. Neugebauer, S. Spicher,
     C. Bannwarth and S. Grimme, J. Chem. Phys., 2019, 150, 154122.
     DOI: 10.1063/1.5090222
   * E. Caldeweyher, J.-M. Mewes, S. Ehlert and S. Grimme, Phys. Chem. Chem. Phys.
     2020, 22, 8499-8512. DOI: 10.1039/D0CP00502A
   
   for sTDA-xTB:
   * S. Grimme and C. Bannwarth, J. Chem. Phys., 2016, 145, 054103.
     DOI: 10.1063/1.4959605
   
   in the mass-spec context:
   * V. Asgeirsson, C. Bauer and S. Grimme, Chem. Sci., 2017, 8, 4879.
     DOI: 10.1039/c7sc00601b
   * J. Koopman and S. Grimme, ACS Omega 2019, 4, 12, 15120-15133.
     DOI: 10.1021/acsomega.9b02011
   
   for metadynamics refer to:
   * S. Grimme, J. Chem. Theory Comput., 2019, 155, 2847-2862
     DOI: 10.1021/acs.jctc.9b00143
   
   for SPH calculations refer to:
   * S. Spicher and S. Grimme, J. Chem. Theory Comput., 2021, 17, 1701-1714
     DOI: 10.1021/acs.jctc.0c01306
   
   for ONIOM refer to:
   * C. Plett, A. Katbashev, S. Ehlert, S. Grimme, M. Bursch,
     Phys. Chem. Chem. Phys., 2023, 25, 17860-17868. DOI: 10.1039/D3CP02178E
   
   for DIPRO refer to:
   * J. Kohn, N. Gildemeister, S. Grimme, D. Fazzi, A. Hansen,
     J. Chem. Phys., 2023, just accepted.
   
   for PTB refer to:
   * S. Grimme, M. Mueller, A. Hansen, J. Chem. Phys., 2023, 158, 124111.
     DOI: 10.1063/5.0137838
   
   with help from (in alphabetical order)
   P. Atkinson, C. Bannwarth, F. Bohle, G. Brandenburg, E. Caldeweyher
   M. Checinski, S. Dohm, S. Ehlert, S. Ehrlich, I. Gerasimov, C. Hölzer
   A. Katbashev, J. Kohn, J. Koopman, C. Lavigne, S. Lehtola, F. März, M. Müller,
   F. Musil, H. Neugebauer, J. Pisarek, C. Plett, P. Pracht, F. Pultar,
   J. Seibert, P. Shushkov, S. Spicher, M. Stahn, M. Steiner, T. Strunk,
   J. Stückrath, T. Rose, and J. Unsleber
   
 * started run on 2025/08/11 at 13:40:53.039     
   ID    Z sym.   atoms
    1    6 C      1, 2, 6
    2    1 H      3, 4, 7, 11-14
    3    8 O      5, 9, 10
    4    7 N      8

           -------------------------------------------------
          |                Calculation Setup                |
           -------------------------------------------------

          program call               : /home/test/orca/orca_6_1_0_linux_x86-64_shared_openmpi418/otool_xtb s_XTB.xyz --grad -c 0 -u 0 -P 1 --namespace s --input s_XTB.input.tmp --acc 0.200000
          calculation namespace      : s
          coordinate file            : s_XTB.xyz
          omp threads                :                     1


           -------------------------------------------------
          |                 G F N 2 - x T B                 |
           -------------------------------------------------

        Reference                      10.1021/acs.jctc.8b01176
      * Hamiltonian:
        H0-scaling (s, p, d)           1.850000    2.230000    2.230000
        zeta-weighting                 0.500000
      * Dispersion:
        s8                             2.700000
        a1                             0.520000
        a2                             5.000000
        s9                             5.000000
      * Repulsion:
        kExp                           1.500000    1.000000
        rExp                           1.000000
      * Coulomb:
        alpha                          2.000000
        third order                    shell-resolved
        anisotropic                    true
        a3                             3.000000
        a5                             4.000000
        cn-shift                       1.200000
        cn-exp                         4.000000
        max-rad                        5.000000

q/qsh data taken from xtbrestart
CAMM data taken from xtbrestart

          ...................................................
          :                      SETUP                      :
          :.................................................:
          :  # basis functions                  35          :
          :  # atomic orbitals                  35          :
          :  # shells                           21          :
          :  # electrons                        42          :
          :  max. iterations                   250          :
          :  Hamiltonian                  GFN2-xTB          :
          :  restarted?                       true          :
          :  GBSA solvation                  false          :
          :  PC potential                    false          :
          :  electronic temp.          300.0000000     K    :
          :  accuracy                    0.2000000          :
          :  -> integral cutoff          0.3198970E+02      :
          :  -> integral neglect         0.2000000E-08      :
          :  -> SCF convergence          0.2000000E-06 Eh   :
          :  -> wf. convergence          0.2000000E-04 e    :
          :  Broyden damping             0.4000000          :
          :  net charge                          0          :
          :  unpaired electrons                  0          :
          ...................................................

 iter      E             dE          RMSdq      gap      omega  full diag
   1    -25.3139690 -0.253140E+02  0.229E-01    3.66       0.0  T
   2    -25.3140041 -0.351634E-04  0.136E-01    3.63       1.0  T
   3    -25.3139980  0.609751E-05  0.448E-02    3.65       1.0  T
   4    -25.3140098 -0.117530E-04  0.627E-03    3.64       4.3  T
   5    -25.3140098 -0.443014E-07  0.351E-03    3.64       7.6  T
   6    -25.3140099 -0.896943E-08  0.956E-04    3.64      28.0  T
   7    -25.3140099 -0.275089E-08  0.357E-04    3.64      74.9  T
   8    -25.3140099 -0.168562E-09  0.107E-04    3.64     249.1  T
   9    -25.3140099 -0.213483E-10  0.448E-05    3.64     597.1  T

   *** convergence criteria satisfied after 9 iterations ***

         #    Occupation            Energy/Eh            Energy/eV
      -------------------------------------------------------------
         1        2.0000           -0.7521541             -20.4672
       ...           ...                  ...                  ...
        15        2.0000           -0.5018203             -13.6552
        16        2.0000           -0.4846787             -13.1888
        17        2.0000           -0.4751806             -12.9303
        18        2.0000           -0.4592282             -12.4962
        19        2.0000           -0.4377400             -11.9115
        20        2.0000           -0.4237249             -11.5301
        21        2.0000           -0.3721028             -10.1254 (HOMO)
        22                         -0.2383522              -6.4859 (LUMO)
        23                          0.0231041               0.6287
        24                          0.0358425               0.9753
        25                          0.0816959               2.2231
        26                          0.0988000               2.6885
       ...                                ...                  ...
        35                          0.6529062              17.7665
[...]
   F. Musil, H. Neugebauer, J. Pisarek, C. Plett, P. Pracht, F. Pultar,
   J. Seibert, P. Shushkov, S. Spicher, M. Stahn, M. Steiner, T. Strunk,
   J. Stückrath, T. Rose, and J. Unsleber
   
 * started run on 2025/08/11 at 13:40:53.287     
   ID    Z sym.   atoms
    1    6 C      1, 2, 6
    2    1 H      3, 4, 7, 11-14
    3    8 O      5, 9, 10
    4    7 N      8

           -------------------------------------------------
          |                Calculation Setup                |
           -------------------------------------------------

          program call               : /home/test/orca/orca_6_1_0_linux_x86-64_shared_openmpi418/otool_xtb s_XTB.xyz --grad -c 0 -u 0 -P 1 --namespace s --input s_XTB.input.tmp --acc 0.200000
          calculation namespace      : s
          coordinate file            : s_XTB.xyz
          omp threads                :                     1


           -------------------------------------------------
          |                 G F N 2 - x T B                 |
           -------------------------------------------------

        Reference                      10.1021/acs.jctc.8b01176
      * Hamiltonian:
        H0-scaling (s, p, d)           1.850000    2.230000    2.230000
        zeta-weighting                 0.500000
      * Dispersion:
        s8                             2.700000
        a1                             0.520000
        a2                             5.000000
        s9                             5.000000
      * Repulsion:
        kExp                           1.500000    1.000000
        rExp                           1.000000
      * Coulomb:
        alpha                          2.000000
        third order                    shell-resolved
        anisotropic                    true
        a3                             3.000000
        a5                             4.000000
        cn-shift                       1.200000
        cn-exp                         4.000000
        max-rad                        5.000000

q/qsh data taken from xtbrestart
CAMM data taken from xtbrestart

          ...................................................
          :                      SETUP                      :
          :.................................................:
          :  # basis functions                  35          :
          :  # atomic orbitals                  35          :
          :  # shells                           21          :
          :  # electrons                        42          :
          :  max. iterations                   250          :
          :  Hamiltonian                  GFN2-xTB          :
          :  restarted?                       true          :
          :  GBSA solvation                  false          :
          :  PC potential                    false          :
          :  electronic temp.          300.0000000     K    :
          :  accuracy                    0.2000000          :
          :  -> integral cutoff          0.3198970E+02      :
          :  -> integral neglect         0.2000000E-08      :
          :  -> SCF convergence          0.2000000E-06 Eh   :
          :  -> wf. convergence          0.2000000E-04 e    :
          :  Broyden damping             0.4000000          :
          :  net charge                          0          :
          :  unpaired electrons                  0          :
          ...................................................

 iter      E             dE          RMSdq      gap      omega  full diag
   1    -25.3113780 -0.253114E+02  0.217E-03    3.71       0.0  T
   2    -25.3113780 -0.168939E-08  0.131E-03    3.71      20.3  T
   3    -25.3113780 -0.147967E-09  0.221E-04    3.71     121.0  T
   4    -25.3113780 -0.225114E-09  0.729E-05    3.71     366.6  T
   5    -25.3113780 -0.886402E-11  0.324E-05    3.71     825.3  T

   *** convergence criteria satisfied after 5 iterations ***

         #    Occupation            Energy/Eh            Energy/eV
      -------------------------------------------------------------
         1        2.0000           -0.7496110             -20.3980
       ...           ...                  ...                  ...
        15        2.0000           -0.5011358             -13.6366
        16        2.0000           -0.4822411             -13.1224
        17        2.0000           -0.4747358             -12.9182
        18        2.0000           -0.4553976             -12.3920
        19        2.0000           -0.4386041             -11.9350
        20        2.0000           -0.4223260             -11.4921
        21        2.0000           -0.3727267             -10.1424 (HOMO)
        22                         -0.2365334              -6.4364 (LUMO)
        23                          0.0247121               0.6725
        24                          0.0348907               0.9494
        25                          0.0692512               1.8844
        26                          0.0953007               2.5933
       ...                                ...                  ...
        35                          0.6381705              17.3655
      -------------------------------------------------------------
                  HL-Gap            0.1361933 Eh            3.7060 eV
             Fermi-level           -0.3046300 Eh           -8.2894 eV

 SCC (total)                   0 d,  0 h,  0 min,  0.006 sec
 SCC setup                      ...        0 min,  0.000 sec (  1.477%)
 Dispersion                     ...        0 min,  0.000 sec (  0.614%)
 classical contributions        ...        0 min,  0.000 sec (  0.166%)
 integral evaluation            ...        0 min,  0.001 sec (  8.915%)
 iterations                     ...        0 min,  0.004 sec ( 65.019%)
 molecular gradient             ...        0 min,  0.001 sec ( 22.777%)
 printout                       ...        0 min,  0.000 sec (  0.879%)

         :::::::::::::::::::::::::::::::::::::::::::::::::::::
         ::                     SUMMARY                     ::
         :::::::::::::::::::::::::::::::::::::::::::::::::::::
         :: total energy             -25.098145027869 Eh    ::
         :: gradient norm              0.000126836335 Eh/a0 ::
         :: HOMO-LUMO gap              3.706008168818 eV    ::
         ::.................................................::
         :: SCC energy               -25.311359201386 Eh    ::
         :: -> isotropic ES            0.081220213351 Eh    ::
         :: -> anisotropic ES          0.001999391691 Eh    ::
         :: -> anisotropic XC          0.002916000559 Eh    ::
         :: -> dispersion             -0.008308920369 Eh    ::
         :: repulsion energy           0.213214173518 Eh    ::
         :: add. restraining           0.000000000000 Eh    ::
         :: total charge               0.000000000000 e     ::
         :::::::::::::::::::::::::::::::::::::::::::::::::::::


Property printout bound to 'properties.out'

           -------------------------------------------------
          | TOTAL ENERGY              -25.098145027869 Eh   |
          | GRADIENT NORM               0.000126836335 Eh/α |
          | HOMO-LUMO GAP               3.706008168818 eV   |
           -------------------------------------------------

------------------------------------------------------------------------
 * finished run on 2025/08/11 at 13:40:53.299     
------------------------------------------------------------------------
 total:
 * wall-time:     0 d,  0 h,  0 min,  0.011 sec
 *  cpu-time:     0 d,  0 h,  0 min,  0.010 sec
 * ratio c/w:     0.860 speedup
 SCF:
 * wall-time:     0 d,  0 h,  0 min,  0.006 sec
 *  cpu-time:     0 d,  0 h,  0 min,  0.005 sec
 * ratio c/w:     0.748 speedup


-------------------------   --------------------
FINAL SINGLE POINT ENERGY       -25.098145027870
-------------------------   --------------------


-------------
DIPOLE MOMENT
-------------
                                X             Y             Z
Total Dipole Moment    :     -0.17700      -0.11800       0.34800
                        -----------------------------------------
Magnitude (a.u.)       :      0.40787
Magnitude (Debye)      :      1.03672

                                *** OPTIMIZATION RUN DONE ***

		     ------------------------------
			                   _   
			                  | |  
			  __ _  ___   __ _| |_ 
			 / _` |/ _ \ / _` | __|
			| (_| | (_) | (_| | |_ 
			 \__, |\___/ \__,_|\__|
			 __/ |                
			|___/                 

		      A Global Optimizer Algorithm
		     ------------------------------

Global parameters
-----------------
  GOAT version                               ... default
  Minimum global steps                       ... 3
  Number of base workers                     ... 4
  Split workers by                           ... 2
  Final number of workers                    ... 8
  Number of available CPUs                   ... 1
  Parameter list (worker : temperature)      ...  0 : 2903.97,  1 : 1451.98, 
                                                  2 :  725.99,  3 :  363.00, 
                                                  4 : 2903.97,  5 : 1451.98, 
                                                  6 :  725.99,  7 :  363.00 
  GradComp (mean : sigma)                    ... 1.00 : 0.50
  Number of fragments                        ... 1
  Number of atoms                            ... 14
  Flexibility parameter                      ... 0.80
  Optimizations per global step              ... 160
  Optimizations per worker                   ... 20

Filtering criteria
------------------
  RMSD                                       ... 0.125 Angs (atom. pos.)
  EnDiff                                     ... 0.100 kcal/mol
  RotConst                                   ... 1.00-2.50 %
  Maximum Conf. Energy                       ... 6.000 kcal/mol

Thermodynamics
--------------
  Ensemble temperature                       ... 298.15 K
  Degeneracy of conformers                   ... 1
  *No rotamers will be included in Gconf

------------------------------------------------------------------------------
   Iter  MinTemp     MaxEn       GradComp    NOpt   NProcs    Output
------------------------------------------------------------------------------
   0     2903.97     42.00    1.00 : 0.50      20        1    s.goat.0.0.out
   1     1451.98     42.00    1.00 : 0.50      20        1    s.goat.0.1.out
   2      725.99     42.00    1.00 : 0.50      20        1    s.goat.0.2.out
   3      363.00     42.00    1.00 : 0.50      20        1    s.goat.0.3.out
   4     2903.97     42.00    1.00 : 0.50      20        1    s.goat.0.4.out
   5     1451.98     42.00    1.00 : 0.50      20        1    s.goat.0.5.out
   6      725.99     42.00    1.00 : 0.50      20        1    s.goat.0.6.out
   7      363.00     42.00    1.00 : 0.50      20        1    s.goat.0.7.out

			     GOAT Global Iter 1
		Iter    Min En       Sconf       Gconf   
		        Hartree      cal/(molK)  kcal/mol
		=========================================

		   1    -25.104081   3.831       -0.457

   0     2903.97     42.00    1.00 : 0.50      20        1    s.goat.1.0.out
   1     1451.98     42.00    1.00 : 0.50      20        1    s.goat.1.1.out
   2      725.99     42.00    1.00 : 0.50      20        1    s.goat.1.2.out
   3      363.00     42.00    1.00 : 0.50      20        1    s.goat.1.3.out
   4     2903.97     42.00    1.00 : 0.50      20        1    s.goat.1.4.out
   5     1451.98     42.00    1.00 : 0.50      20        1    s.goat.1.5.out
   6      725.99     42.00    1.00 : 0.50      20        1    s.goat.1.6.out
   7      363.00     42.00    1.00 : 0.50      20        1    s.goat.1.7.out

			     GOAT Global Iter 2
		Iter    Min En       Sconf       Gconf   
		        Hartree      cal/(molK)  kcal/mol
		=========================================

		   1    -25.104081   3.831       -0.457
		   2    -25.104081   4.049       -0.475

   0     2903.97     42.00    1.00 : 0.50      20        1    s.goat.2.0.out
   1     1451.98     42.00    1.00 : 0.50      20        1    s.goat.2.1.out
   2      725.99     42.00    1.00 : 0.50      20        1    s.goat.2.2.out
   3      363.00     42.00    1.00 : 0.50      20        1    s.goat.2.3.out
   4     2903.97     42.00    1.00 : 0.50      20        1    s.goat.2.4.out
   5     1451.98     42.00    1.00 : 0.50      20        1    s.goat.2.5.out
   6      725.99     42.00    1.00 : 0.50      20        1    s.goat.2.6.out
   7      363.00     42.00    1.00 : 0.50      20        1    s.goat.2.7.out

			     GOAT Global Iter 3
		Iter    Min En       Sconf       Gconf   
		        Hartree      cal/(molK)  kcal/mol
		=========================================

		   1    -25.104081   3.831       -0.457
		   2    -25.104081   4.049       -0.475
		   3    -25.104081   4.419       -0.519

		Global minimum found!
		Writing structure to s.globalminimum.xyz

		# Final ensemble info #
		Conformer     Energy     Degen.   % total   % cumul.  
		              (kcal/mol)
		------------------------------------------------------
		        0     0.000	     1      41.62      41.62
		        1     0.801	     1      10.76      52.39
		        2     0.982	     1       7.93      60.32
		        3     1.105	     1       6.44      66.76
		        4     1.109	     1       6.40      73.16
		        5     1.340	     1       4.34      77.50
		        6     1.396	     1       3.95      81.45
		        7     1.460	     1       3.54      84.99
		        8     1.679	     1       2.45      87.43
		        9     1.695	     1       2.38      89.81
		       10     1.785	     1       2.05      91.86
		       11     2.037	     1       1.34      93.20
		       12     2.105	     1       1.19      94.39
		       13     2.229	     1       0.97      95.36
		       14     2.281	     1       0.89      96.24
		       15     2.607	     1       0.51      96.75
		       16     2.669	     1       0.46      97.21
		       17     2.770	     1       0.39      97.60
		       18     2.804	     1       0.37      97.97
		       19     2.804	     1       0.37      98.33
		       20     2.900	     1       0.31      98.64
		       21     3.044	     1       0.24      98.89
		       22     3.164	     1       0.20      99.09
		       23     3.470	     1       0.12      99.21
		       24     3.475	     1       0.12      99.33
		       25     3.487	     1       0.12      99.44
		       26     3.664	     1       0.09      99.53
		       27     3.712	     1       0.08      99.61
		       28     3.725	     1       0.08      99.68
		       29     3.815	     1       0.07      99.75
		       30     4.055	     1       0.04      99.79
		       31     4.117	     1       0.04      99.83
		       32     4.481	     1       0.02      99.86
		       33     4.488	     1       0.02      99.88
		       34     4.656	     1       0.02      99.89
		       35     4.691	     1       0.02      99.91
		       36     4.747	     1       0.01      99.92
		       37     4.800	     1       0.01      99.94
		       38     4.845	     1       0.01      99.95
		       39     4.923	     1       0.01      99.96
		       40     4.961	     1       0.01      99.97
		       41     5.161	     1       0.01      99.97
		       42     5.184	     1       0.01      99.98
		       43     5.270	     1       0.01      99.99
		       44     5.334	     1       0.01      99.99
		       45     5.626	     1       0.00      99.99
		       46     5.675	     1       0.00     100.00
		       47     5.739	     1       0.00     100.00

		Conformers below 3 kcal/mol: 21
		Lowest energy conformer    : -25.104081 Eh
		Sconf at 298.15 K          :  4.42 cal/(molK)
		Gconf at 298.15 K          : -0.52 kcal/mol

		Writing final ensemble to s.finalensemble.xyz

--------------------------------
SUGGESTED CITATIONS FOR THIS RUN
--------------------------------

Below you find a list of papers that are relevant to this ORCA run
We neither can nor want to force you to cite these papers, but we appreciate if you do
You receive ORCA, which is the product of decades of hard work by many enthusiastic individuals, for free
The only thing we kindly ask in return is that you cite our papers,
We deeply appreciate it, if you show your appreciation for ORCA by not just citing the generic ORCA reference.

Please note that relegating all ORCA citations to the supporting information does *not* help us.
SI sections are not indexed - citations you put there will not count into any citation statistics
But we need these citations in order to attract the funding resources that allow us to do what we are doing

Therefore, if you are a happy ORCA user, please consider citing a few of the papers listed below in the main body of your paper

In addition to the list printed below, the program has created the file s.bibtex that contains the list in bibtex format
You can import this file easily into all common literature databanks and citation aid programs


List of essential papers. We consider these as the minimum necessary citations

  1. Bannwarth, C.; Ehlert, S.; Grimme, S.
     GFN2-xTB—An Accurate and Broadly Parametrized Self-Consistent Tight-Binding Quantum Chemical Method with Multipole Electrostatics and Density-Dependent Dispersion Contributions
     J. Chem. Theory Comput. 2019 15(3), 1652-1671
     doi.org/10.1021/acs.jctc.8b01176
  2. Neese, F.
     Software update: the ORCA program system, version 6.0
     WIRES Comput. Molec. Sci. 2025 15(1), e70019
     doi.org/10.1002/wcms.7019
  3. de Souza, B.
     GOAT: A Global Optimization Algorithm for Molecules and Atomic Clusters
     Angewandte Chemie 2025 64(18), e202500393
     doi.org/10.1002/anie.202500393

List of papers to cite with high priority. The work reported in these papers was absolutely
necessary for this run to complete.
Our perspective: the developers of density functionals and basis sets usually get cited in chemistry papers
Good! But without the algorithms to do something with them, the functionals or basis sets would not do anything.
Hence, in our opinion, the algorithm design and method developments papers are equally worthy of getting cited

  1. Bannwarth, C.; Caldeweyher, E.; Ehlert, S.; Hansen, A.; Pracht, P.; Seibert, J.; Spicher, S.; Grimme, S.
     Extended tight-binding quantum chemistry methods
     WIRES Comput. Molec. Sci. 2020 11(2), e1493
     doi.org/10.1002/wcms.1493

List of suggested additional citations. These are papers that are important in the 'surrounding' of 
of this run, or papers that preceded the highly important papers. If you like your results we are grateful for a citation.

  1. Neese, F.
     The ORCA program system
     WIRES Comput. Molec. Sci. 2012 2(1), 73-78
     doi.org/10.1002/wcms.81
  2. Neese, F.
     Software update: the ORCA program system, version 4.0
     WIRES Comput. Molec. Sci. 2018 8(1), 1-6
     doi.org/10.1002/wcms.1327
  3. Neese, F.; Wennmohs, F.; Becker, U.; Riplinger, C.
     The ORCA quantum chemistry program package
     J. Chem. Phys. 2020 152(22), 224108
     doi.org/10.1063/5.0004608
  4. Neese, F.
     Software update: The ORCA program system—Version 5.0
     WIRES Comput. Molec. Sci. 2022 12(1), e1606
     doi.org/10.1002/wcms.1606

List of optional additional citations

  1. Neese, F.
     Approximate second-order SCF convergence for spin unrestricted wavefunctions
     Chem. Phys. Lett. 2000 325(1-3), 93-98
     doi.org/10.1016/s0009-2614(00)00662-x

Timings for individual modules:

Sum of individual times          ...      385.615 sec (=   6.427 min)
Geometry relaxation              ...        0.018 sec (=   0.000 min)   0.0 %
GOAT                             ...      385.327 sec (=   6.422 min)  99.9 %
XTB module                       ...        0.270 sec (=   0.005 min)   0.1 %
                             ****ORCA TERMINATED NORMALLY****
TOTAL RUN TIME: 0 days 0 hours 6 minutes 25 seconds 670 msec
