
                                 *****************
                                 * O   R   C   A *
                                 *****************

                                            #,                                       
                                            ###                                      
                                            ####                                     
                                            #####                                    
                                            ######                                   
                                           ########,                                 
                                     ,,################,,,,,                         
                               ,,#################################,,                 
                          ,,##########################################,,             
                       ,#########################################, ''#####,          
                    ,#############################################,,   '####,        
                  ,##################################################,,,,####,       
                ,###########''''           ''''###############################       
              ,#####''   ,,,,##########,,,,          '''####'''          '####       
            ,##' ,,,,###########################,,,                        '##       
           ' ,,###''''                  '''############,,,                           
         ,,##''                                '''############,,,,        ,,,,,,###''
      ,#''                                            '''#######################'''  
     '                                                          ''''####''''         
             ,#######,   #######,   ,#######,      ##                                
            ,#'     '#,  ##    ##  ,#'     '#,    #''#        ,####,    ,#,          
            ##       ##  ##   ,#'  ##            #'  '#       #'       ,# #          
            ##       ##  #######   ##           ,######,      #####,      #          
            '#,     ,#'  ##    ##  '#,     ,#' ,#      #,     #,   #      #          
             '#######'   ##     ##  '#######'  #'      '#     '####' #    #          



                #########################################################
                #                        -***-                          #
                #          Department of theory and spectroscopy        #
                #                                                       #
                #                      Frank Neese                      #
                #                                                       #
                #     Directorship, Architecture, Infrastructure        #
                #                    SHARK, DRIVERS                     #
                #        Core code/Algorithms in most modules           #
                #                                                       #
                #        Max Planck Institute fuer Kohlenforschung      #
                #                Kaiser Wilhelm Platz 1                 #
                #                 D-45470 Muelheim/Ruhr                 #
                #                      Germany                          #
                #                                                       #
                #                  All rights reserved                  #
                #                        -***-                          #
                #########################################################


                         Program Version 6.1.0  -  RELEASE   -
                                (GIT: $679e74b$)
                          ($2025-06-10 18:02:51 +0200$)


 With contributions from (in alphabetic order):
[Max-Planck-Institut fuer Kohlenforschung]                               
  Daniel Aravena         : Magnetic Suceptibility                        
  Michael Atanasov       : Ab Initio Ligand Field Theory (pilot matlab implementation)
  Alexander A. Auer      : GIAO ZORA, VPT2 properties, NMR spectrum      
  Ute Becker             : All parallelization in ORCA, NUMFREQ, NUMCALC 
  Giovanni Bistoni       : ED, misc. LED, open-shell LED, HFLD           
  Dmytro Bykov           : pre 5.0 version of the SCF Hessian            
  Marcos Casanova-Páez   : Triplet and SCS-CIS(D). UHF-(DLPNO)-IP/EA/STEOM-CCSD. UHF-CVS-IP/STEOM-CCSD   
  Vijay G. Chilkuri      : MRCI spin determinant printing, contributions to CSF-ICE 
  Pauline Colinet        : FMM embedding                                 
  Dipayan Datta          : RHF DLPNO-CCSD density                        
  Achintya Kumar Dutta   : EOM-CC, STEOM-CC                              
  Nicolas Foglia         : Exact transition moments, OPA infrastructure, MCD improvements    
  Dmitry Ganyushin       : Spin-Orbit,Spin-Spin,Magnetic field MRCI      
  Miquel Garcia-Rates    : C-PCM and meta-GGA Hessian, CCSD/C-PCM, Gaussian charge scheme 
  Tiago L. C. Gouveia    : GS-ROHF, GS-ROCIS                             
  Yang Guo               : DLPNO-NEVPT2, F12-NEVPT2, CIM, IAO-localization        
  Andreas Hansen         : Spin unrestricted coupled pair/coupled cluster methods 
  Ingolf Harden          : AUTO-CI MPn and infrastructure                
  Benjamin Helmich-Paris : MC-RPA, TRAH-(SCF,CASSCF), AVAS, COSX integrals, SCF dyn. polar., MC-PDFT, srDFT 
  Lee Huntington         : MR-EOM, pCC                                   
  Robert Izsak           : Overlap fitted RIJCOSX, COSX-SCS-MP3, EOM     
  Riya Kayal             : Wick's Theorem for AUTO-CI, AUTO-CI UHF-CCSDT 
  Emily Kempfer          : AUTO-CI RHF CISDT and CCSDT, approximate NEVPT4
  Christian Kollmar      : KDIIS, OOCD, Brueckner-CCSD(T), CCSD density, CASPT2, CASPT2-K, improved NEVPT2 
  Axel Koslowski         : Symmetry handling                             
  Simone Kossmann        : meta-GGA functionals, TD-DFT gradient, OOMP2, (MP2 Hessian; deprecated post 5.0) 
  Lucas Lang             : DCDCAS, Hyperfine gauge corrections, ICE-SOC+SSC
  Marvin Lechner         : AUTO-CI (C++ implementation), FIC-MRCC        
  Spencer Leger          : CASSCF response                               
  Dagmar Lenk            : GEPOL surface, SMD, ORCA-2-JSON               
  Dimitrios Liakos       : Extrapolation schemes; Compound Job, Property file
  Dimitrios Manganas     : Further ROCIS development; embedding schemes. LFT, Crystal Embedding 
  Dimitrios Pantazis     : SARC Basis sets                               
  Anastasios Papadopoulos: AUTO-CI, single reference methods and gradients 
  Taras Petrenko         : pre 6.0 DFT Hessian and TD-DFT gradient,  ECA, NRVS 
  Petra Pikulova         : Analytic Raman intensities                    
  Peter Pinski           : DLPNO-MP2, DLPNO-MP2 Gradient                 
  Shashank Vittal Rao    : ES-AILFT, MagRelax                            
  Christoph Reimann      : Effective Core Potentials                     
  Marius Retegan         : Local ZFS, SOC                                
  Christoph Riplinger    : Optimizer, TS searches, QM/MM, DLPNO-CCSD(T), (RO)-DLPNO pert. Triples 
  Michael Roemelt        : Original ROCIS implementation, recursive CI coupling coefficients
  Masaaki Saitow         : Open-shell DLPNO-CCSD energy and density      
  Barbara Sandhoefer     : DKH picture change effects                    
  Yorick L. A. Schmerwitz: GMF and freeze-and-release deltaSCF, NEB S-IDPP initial path                    
  Kantharuban Sivalingam : CASSCF convergence/infrastructure, NEVPT2, NEVPT3, NEVPT4(SD), FIC-MRCI and CEPA variants
  Bernardo de Souza      : ESD, SOC TD-DFT                               
  Georgi L. Stoychev     : AutoAux, RI-MP2 NMR, DLPNO-MP2 response, X2C  
  Van Anh Tran           : RI-MP2 g-tensors                              
  Willem Van den Heuvel  : Paramagnetic NMR                              
  Zikuan Wang            : NOTCH, Electric field optimization            
  Frank Wennmohs         : Technical directorship and infrastructure     
  Hang Xu                : AUTO-CI-Response properties                   
                                                                         
[FACCTs GmbH]                                                            
  Markus Bursch, Nicolas Foglia, Miquel Garcia-Rates, Ingolf Harden, Hagen Neugebauer, Anastasios Papadopoulos, 
  Christoph Riplinger, Bernardo de Souza, Georgi L. Stoychev                                                    
                                                                 
  APM, various basis sets, CI-OPT, improved COSX, DLPNO-Multilevel,           
  DOCKER, DRACO, updates on ESD, Fragmentator, GOAT, IRC, LR-CPCM, L-BFGS, MBIS, meta-GGA TD-DFT gradient, ML-optimized integration grids, 
  MM, NACMEs, nearIR, NEB, NEB-TS, NL-DFT gradient (VV10), 2- and 3-layer-ONIOM, interface openCOSMO-RS, QMMM,   
  Crystal-QMMM, RESP, rigid body optimization, SF, symmetry and pop. for TD-DFT, various functionals, SOLVATOR                                   
                                                                         
[Other institutions]                                                     
  V. Asgeirsson          : NEB                                           
  Christoph Bannwarth    : sTDA-DFT, sTD-DFT, PBEh-3c, B97-3c, D3        
  Giovanni Bistoni       : ETS/NOCV, ADLD/ADEX, COVALED                  
  Martin Brehm           : Molecular dynamics                            
  Ronald Cardenas        : ETS/NOCV                                      
  Martina Colucci        : COVALED                                       
  Sebastian Ehlert       : rSCAN, r2SCAN, r2SCAN-3c, D4, dhf basis sets  
  Marvin Friede          : D4 for Fr, Ra, Ac-Lr                          
  Lars Goerigk           : TD-DFT with DH, B97 family of functionals     
  Stefan Grimme          : VdW corrections, initial TS optimization, DFT functionals, gCP, sTDA/sTD-DF 
  Waldemar Hujo          : DFT-NL                                        
  H. Jonsson             : NEB                                           
  Holger Kruse           : gCP                                           
  Marcel Mueller         : wB97X-3c, vDZP basis set                      
  Hagen Neugebauer       : wr2SCAN, Native XTB                           
  Gianluca Regni         : ADLD/ADEX                                     
  Tobias Risthaus        : pre 6.0 range-separated hybrid DFT and stability analysis
  Lukas Wittmann         : regularized MP2, r2SCAN double-hybrids, wr2SCAN        
                                                                         
We gratefully acknowledge several colleagues who have allowed us to      
interface, adapt or use parts of their codes:                            
  Ed Valeev, F. Pavosevic, A. Kumar             : LibInt (2-el integral package), F12 methods 
  Garnet Chan, S. Sharma, J. Yang, R. Olivares  : DMRG                   
  Ulf Ekstrom                                   : XCFun DFT Library      
  Mihaly Kallay                                 : mrcc  (arbitrary order and MRCC methods)
  Frank Weinhold                                : gennbo (NPA and NBO analysis)           
  Simon Mueller                                 : openCOSMO-RS                            
  Christopher J. Cramer and Donald G. Truhlar   : smd solvation model                     
  S Lehtola, MJT Oliveira, MAL Marques          : LibXC Library                           
  Liviu Ungur et al                             : ANISO software                          


 Your calculation uses the libint2 library for the computation of 2-el integrals
 For citations please refer to: http://libint.valeyev.net

 Your ORCA version has been built with support for libXC version: 7.0.0
 For citations please refer to: https://libxc.gitlab.io

 This ORCA versions uses:
   CBLAS   interface :  Fast vector & matrix operations
   LAPACKE interface :  Fast linear algebra routines
   SCALAPACK package :  Parallel linear algebra routines
   Shared memory     :  Shared parallel matrices
   BLAS/LAPACK       :  OpenBLAS 0.3.29  USE64BITINT DYNAMIC_ARCH NO_AFFINITY Haswell SINGLE_THREADED
        Core in use  :  Haswell
   Copyright (c) 2011-2014, The OpenBLAS Project


  ***********************************
  * Starting time: Thu Aug 14 12:15:43 2025
  * Host name:     CHEMLAB02
  * Process ID:    1769998
  * Working dir.:  /home/vivek/mm-project/vivek/MP2/g/2
  ***********************************



***************************************
The coordinates will be read from file: /home/vivek/mm-project/vivek/xtb-goat/g/G_CONF/2.xyz
***************************************


================================================================================

----- Orbital basis set information -----
Your calculation utilizes the basis: 6-31G**
   H-He, Li-Ne : W. J. Hehre, R. Ditchfield and J.A. Pople, J. Chem. Phys. 56, 2257 (1972).
                 Note: He and Ne are unpublished basis sets taken from the Gaussian program.
                 Note: Li and B from J. D. Dill and J. A. Pople, J. Chem. Phys. 62, 2921 (1975).
   Na - Ar     : M. M. Francl, W. J. Pietro, W. J. Hehre, J. S. Binkley, M. S. Gordon, 
                 D. J. DeFrees and J. A. Pople, J. Chem. Phys. 77, 3654 (1982).
   K - Zn      : V. A. Rassolov, J. A. Pople, M. A. Ratner, and T. L. Windus, J. Chem. Phys. 109, 1223 (1998).

================================================================================
                                        WARNINGS
                       Please study these warnings very carefully!
================================================================================


WARNING: No MP2 level density has been requested!
         To calculate MP2 level properties use
         %mp2 Density relaxed end
         or
         %mp2 Density unrelaxed end

WARNING: Post HF methods need fully converged wavefunctions
  ===> : Setting SCFConvForced true
         You can overwrite this default with %scf ConvForced false 


================================================================================
                                       INPUT FILE
================================================================================
NAME = 2.inp
|  1> ! MP2 6-31G** 
|  2> 
|  3> * xyzfile 0 1 /home/vivek/mm-project/vivek/xtb-goat/g/G_CONF/2.xyz
|  4> 
|  5>                          ****END OF INPUT****
================================================================================

                       ****************************
                       * Single Point Calculation *
                       ****************************

---------------------------------
CARTESIAN COORDINATES (ANGSTROEM)
---------------------------------
  C     -5.169397   -1.391819   -0.276917
  C     -5.038082   -2.504742    0.751641
  H     -6.069155   -0.049418    0.971285
  H     -4.432142    0.096926    0.908423
  N     -5.263230   -0.085884    0.355657
  O     -3.813171   -2.528154    1.296505
  H     -4.291910   -1.396365   -0.927095
  H     -6.070858   -1.560731   -0.868651
  H     -3.757230   -3.210200    1.984666
  O     -5.919114   -3.239298    1.108713

----------------------------
CARTESIAN COORDINATES (A.U.)
----------------------------
  NO LB      ZA    FRAG     MASS         X           Y           Z
   0 C     6.0000    0    12.011   -9.768744   -2.630156   -0.523297
   1 C     6.0000    0    12.011   -9.520594   -4.733277    1.420396
   2 H     1.0000    0     1.008  -11.469041   -0.093387    1.835463
   3 H     1.0000    0     1.008   -8.375535    0.183164    1.716670
   4 N     7.0000    0    14.007   -9.946064   -0.162297    0.672095
   5 O     8.0000    0    15.999   -7.205848   -4.777518    2.450039
   6 H     1.0000    0     1.008   -8.110535   -2.638748   -1.751955
   7 H     1.0000    0     1.008  -11.472258   -2.949354   -1.641513
   8 H     1.0000    0     1.008   -7.100135   -6.066399    3.750475
   9 O     8.0000    0    15.999  -11.185505   -6.121386    2.095164

--------------------------------
INTERNAL COORDINATES (ANGSTROEM)
--------------------------------
 C      0   0   0     0.000000000000     0.00000000     0.00000000
 C      1   0   0     1.521109305235     0.00000000     0.00000000
 H      1   2   0     2.041963037423    96.06718912     0.00000000
 H      3   1   2     1.644743031156    66.20709281    93.00270378
 N      4   3   1     1.014729791057    35.86649902    38.85742923
 O      2   1   3     1.340832541747   111.49485798   262.11743696
 H      1   2   3     1.092123825934   109.27789589   143.60757919
 H      1   2   3     1.091472911767   108.94517310   263.68051091
 H      6   2   1     0.970506303402   110.67517839   176.90853282
 O      2   1   3     1.201370414786   125.80465026    78.21599275

---------------------------
INTERNAL COORDINATES (A.U.)
---------------------------
 C      0   0   0     0.000000000000     0.00000000     0.00000000
 C      1   0   0     2.874480006654     0.00000000     0.00000000
 H      1   2   0     3.858750916319    96.06718912     0.00000000
 H      3   1   2     3.108113889561    66.20709281    93.00270378
 N      4   3   1     1.917561405029    35.86649902    38.85742923
 O      2   1   3     2.533806295352   111.49485798   262.11743696
 H      1   2   3     2.063814935345   109.27789589   143.60757919
 H      1   2   3     2.062584885833   108.94517310   263.68051091
 H      6   2   1     1.833991124674   110.67517839   176.90853282
 O      2   1   3     2.270261069340   125.80465026    78.21599275

---------------------
BASIS SET INFORMATION
---------------------
There are 4 groups of distinct atoms

 Group   1 Type C   : 10s4p1d contracted to 3s2p1d pattern {631/31/1}
 Group   2 Type H   : 4s1p contracted to 2s1p pattern {31/1}
 Group   3 Type N   : 10s4p1d contracted to 3s2p1d pattern {631/31/1}
 Group   4 Type O   : 10s4p1d contracted to 3s2p1d pattern {631/31/1}

Atom   0C    basis set group =>   1
Atom   1C    basis set group =>   1
Atom   2H    basis set group =>   2
Atom   3H    basis set group =>   2
Atom   4N    basis set group =>   3
Atom   5O    basis set group =>   4
Atom   6H    basis set group =>   2
Atom   7H    basis set group =>   2
Atom   8H    basis set group =>   2
Atom   9O    basis set group =>   4
------------------------------------------------------------------------------
                             ORCA STARTUP CALCULATIONS
------------------------------------------------------------------------------
------------------------------------------------------------------------------
                   ___                                                        
                  /   \      - P O W E R E D   B Y -                         
                 /     \                                                     
                 |  |  |   _    _      __       _____    __    __             
                 |  |  |  | |  | |    /  \     |  _  \  |  |  /  |          
                  \  \/   | |  | |   /    \    | | | |  |  | /  /          
                 / \  \   | |__| |  /  /\  \   | |_| |  |  |/  /          
                |  |  |   |  __  | /  /__\  \  |    /   |      \           
                |  |  |   | |  | | |   __   |  |    \   |  |\   \          
                \     /   | |  | | |  |  |  |  | |\  \  |  | \   \       
                 \___/    |_|  |_| |__|  |__|  |_| \__\ |__|  \__/        
                                                                              
                      - O R C A' S   B I G   F R I E N D -                    
                                      &                                       
                       - I N T E G R A L  F E E D E R -                       
                                                                              
 v1 FN, 2020, v2 2021, v3 2022-2024                                           
------------------------------------------------------------------------------


----------------------
SHARK INTEGRAL PACKAGE
----------------------

Number of atoms                             ...     10
Number of basis functions                   ...     95
Number of shells                            ...     45
Maximum angular momentum                    ...      2
Integral batch strategy                     ... SHARK/LIBINT Hybrid
RI-J (if used) integral strategy            ... SPLIT-RIJ (Revised 2003 algorithm where possible)
Printlevel                                  ...      1
Contraction scheme used                     ... SEGMENTED contraction
Prescreening option                         ... SCHWARTZ
   Thresh                                   ... 1.000e-10
   Tcut                                     ... 1.000e-11
   Tpresel                                  ... 1.000e-11 
Coulomb Range Separation                    ... NOT USED
Exchange Range Separation                   ... NOT USED
Multipole approximations                    ... NOT USED
Finite Nucleus Model                        ... NOT USED
CABS basis                                  ... NOT available
Auxiliary Coulomb fitting basis             ... NOT available
Auxiliary J/K fitting basis                 ... NOT available
Auxiliary Correlation fitting basis         ... NOT available
Auxiliary 'external' fitting basis          ... NOT available

Checking pre-screening integrals            ... done (  0.0 sec) Dimension = 45
   => SHARK Basis and OBASIS are compatible. Storing Pre-screening
Shell pair information
Shell pair cut-off parameter TPreSel        ...   1.0e-11
Total number of shell pairs                 ...      1035
Shell pairs after pre-screening             ...      1012
Total number of primitive shell pairs       ...      5170
Primitive shell pairs kept                  ...      3717
          la=0 lb=0:    314 shell pairs
          la=1 lb=0:    365 shell pairs
          la=1 lb=1:    118 shell pairs
          la=2 lb=0:    125 shell pairs
          la=2 lb=1:     75 shell pairs
          la=2 lb=2:     15 shell pairs

Checking whether 4 symmetric matrices of dimension 95 fit in memory
:Max Core in MB      =   4096.00
 MB in use           =      2.63
 MB left             =   4093.37
 MB needed           =      0.14
 Data fit in memory  = YES
Calculating Nuclear repulsion               ... done (  0.0 sec) ENN=    180.274094865167 Eh

Diagonalization of the overlap matrix:
Smallest eigenvalue                        ... 5.375e-03
Time for diagonalization                   ...    0.001 sec
Threshold for overlap eigenvalues          ... 1.000e-07
Number of eigenvalues below threshold      ... 0
Time for construction of square roots      ...    0.000 sec
Total time needed                          ...    0.001 sec

-------------------
DFT GRID GENERATION
-------------------

General Integration Accuracy     IntAcc      ... 4.388
Radial Grid Type                 RadialGrid  ... OptM3 with GC (2021)
Angular Grid (max. ang.)         AngularGrid ... 4 (Lebedev-302)
Angular grid pruning method      GridPruning ... 4 (adaptive)
Weight generation scheme         WeightScheme... mBecke (2022)
Basis function cutoff            BFCut       ... 1.0000e-10
Integration weight cutoff        WCut        ... 1.0000e-14
Partially contracted basis set               ... off
Rotationally invariant grid construction     ... off
Angular grids for H and He will be reduced by one unit

Total number of grid points                  ...    46626
Total number of batches                      ...      734
Average number of points per batch           ...       63
Average number of grid points per atom       ...     4663
Grids setup in   0.1 sec
Initializing property integral containers    ... done (  0.0 sec)

SHARK setup successfully completed in   0.2 seconds

Maximum memory used throughout the entire STARTUP-calculation: 17.8 MB
-------------------------------------------------------------------------------
                                 ORCA GUESS
                   Start orbitals & Density for SCF / CASSCF
-------------------------------------------------------------------------------

------------
SCF SETTINGS
------------
Hamiltonian:
 Ab initio Hamiltonian  Method          .... Hartree-Fock(GTOs)


General Settings:
 Integral files         IntName         .... 2
 Hartree-Fock type      HFTyp           .... RHF
 Total Charge           Charge          ....    0
 Multiplicity           Mult            ....    1
 Number of Electrons    NEL             ....   40
 Basis Dimension        Dim             ....   95
 Nuclear Repulsion      ENuc            ....    180.2740948652 Eh

Convergence Acceleration:
 AO-DIIS                CNVDIIS         .... on
   Start iteration      DIISMaxIt       ....    12
   Startup error        DIISStart       ....  0.200000
   # of expansion vecs  DIISMaxEq       ....     5
   Bias factor          DIISBfac        ....   1.050
   Max. coefficient     DIISMaxC        ....  10.000
 MO-DIIS                CNVKDIIS        .... off
 Trust-Rad. Augm. Hess. CNVTRAH         .... auto
   Auto Start mean grad. ratio tolernc. ....  1.125000
   Auto Start start iteration           ....    50
   Auto Start num. interpolation iter.  ....    10
   Max. Number of Micro iterations      ....    24
   Max. Number of Macro iterations      .... Maxiter - #DIIS iter
   Number of Davidson start vectors     ....     2
   Converg. threshold    (grad. norm)   ....   5.000e-05
   Grad. Scal. Fac. for Micro threshold ....   0.100
   Minimum threshold for Micro iter.    ....   1.000e-02
   NR start threshold (gradient norm)   ....   1.000e-04
   Initial trust radius                 ....   0.400
   Minimum AH scaling param. (alpha)    ....   1.000
   Maximum AH scaling param. (alpha)    .... 1000.000
   Quad. conv. algorithm                .... NR
   White noise on init. David. guess    .... on
   Maximum white noise                  ....   0.010
   Pseudo random numbers                .... off
   Inactive MOs                         .... canonical
   Orbital update algorithm             .... Taylor
   Preconditioner                       .... Diag
   Full preconditioner red. dimension   ....   250
 SOSCF                 CNVSOSCF           .... on
   Start iteration     SOSCFMaxIt         ....   150
   Startup grad/error  SOSCFStart         ....  0.003300
   Hessian update      SOSCFHessUp        .... L-BFGS
   Autom. constraints  SOSCFAutoConstrain .... off
 Level Shifting         CNVShift        .... on
   Level shift para.    LevelShift      ....    0.2500
   Turn off err/grad.   ShiftErr        ....    0.0010
 Zerner damping         CNVZerner       .... off
 Static damping         CNVDamp         .... on
   Fraction old density DampFac         ....    0.7000
   Max. Damping (<1)    DampMax         ....    0.9800
   Min. Damping (>=0)   DampMin         ....    0.0000
   Turn off err/grad.   DampErr         ....    0.1000

SCF Procedure:
 Maximum # iterations   MaxIter         ....   125
 SCF integral mode      SCFMode         .... Direct
   Integral package                     .... SHARK and LIBINT hybrid scheme
 Reset frequency        DirectResetFreq ....    20
 Integral Threshold     Thresh          ....  1.000e-10 Eh
 Primitive CutOff       TCut            ....  1.000e-11 Eh

Convergence Tolerance:
 Convergence Check Mode ConvCheckMode   .... Total+1el-Energy
 Convergence forced     ConvForced      .... 1
 Energy Change          TolE            ....  1.000e-06 Eh
 1-El. energy change                    ....  1.000e-03 Eh
 Orbital Gradient       TolG            ....  5.000e-05
 Orbital Rotation angle TolX            ....  5.000e-05
 DIIS Error             TolErr          ....  1.000e-06

------------------------------
INITIAL GUESS: MODEL POTENTIAL
------------------------------
Loading Hartree-Fock densities                     ... done
Calculating cut-offs                               ... done
Initializing the effective Hamiltonian             ... done
Setting up the integral package (SHARK)            ... done
Starting the Coulomb interaction                   ... done (   0.0 sec)
Making the grid                                    ... done (   0.0 sec)
Mapping shells                                     ... done
Starting the XC term evaluation                    ... done (   0.0 sec)
Transforming the Hamiltonian                       ... done (   0.0 sec)
Diagonalizing the Hamiltonian                      ... done (   0.0 sec)
Back transforming the eigenvectors                 ... done (   0.0 sec)
Now organizing SCF variables                       ... done
                      ------------------
                      INITIAL GUESS DONE (   0.1 sec)
                      ------------------
             **** ENERGY FILE WAS UPDATED (2.en.tmp) ****
Finished Guess after   0.1 sec
Maximum memory used throughout the entire GUESS-calculation: 6.2 MB

-------------------------------------------------------------------------------------------
                                      ORCA LEAN-SCF
                              memory conserving SCF solver
-------------------------------------------------------------------------------------------

----------------------------------------D-I-I-S--------------------------------------------
Iteration    Energy (Eh)           Delta-E    RMSDP     MaxDP     DIISErr   Damp  Time(sec)
-------------------------------------------------------------------------------------------
               ***  Starting incremental Fock matrix formation  ***
    1    -282.6028263531242146     0.00e+00  3.62e-03  6.29e-02  2.60e-01  0.700   0.2
    2    -282.6900878657748990    -8.73e-02  2.63e-03  4.51e-02  1.62e-01  0.700   0.2
                               ***Turning on AO-DIIS***
    3    -282.7398222175501132    -4.97e-02  1.36e-03  2.17e-02  9.23e-02  0.700   0.2
    4    -282.7709597704440512    -3.11e-02  3.05e-03  4.61e-02  6.23e-02  0.000   0.2
    5    -282.8401748969149594    -6.92e-02  3.96e-04  4.45e-03  4.53e-03  0.000   0.2
                              *** Initializing SOSCF ***
---------------------------------------S-O-S-C-F--------------------------------------
Iteration    Energy (Eh)           Delta-E    RMSDP     MaxDP     MaxGrad    Time(sec)
--------------------------------------------------------------------------------------
    6    -282.8405063298168898    -3.31e-04  2.00e-04  1.95e-03  2.04e-03     0.2
               *** Restarting incremental Fock matrix formation ***
    7    -282.8405860362419162    -7.97e-05  1.26e-04  1.39e-03  1.63e-03     0.2
    8    -282.8406120034009064    -2.60e-05  1.49e-04  1.68e-03  5.45e-04     0.2
    9    -282.8406212038538570    -9.20e-06  2.76e-05  3.25e-04  3.16e-04     0.2
   10    -282.8406221459507606    -9.42e-07  8.32e-06  9.43e-05  7.25e-05     0.2
                 **** Energy Check signals convergence ****

               *****************************************************
               *                     SUCCESS                       *
               *           SCF CONVERGED AFTER  10 CYCLES          *
               *****************************************************

             **** ENERGY FILE WAS UPDATED (2.en.tmp) ****

----------------
TOTAL SCF ENERGY
----------------

Total Energy       :       -282.84062222280795 Eh           -7696.48461 eV

Components:
Nuclear Repulsion  :        180.27409486516743 Eh            4905.50751 eV
Electronic Energy  :       -463.11471708797541 Eh          -12601.99212 eV
One Electron Energy:       -744.20817890220474 Eh          -20250.93409 eV
Two Electron Energy:        281.09346181422933 Eh            7648.94196 eV

Virial components:
Potential Energy   :       -565.24588671538845 Eh          -15381.12254 eV
Kinetic Energy     :        282.40526449258056 Eh            7684.63793 eV
Virial Ratio       :          2.00154160628347

---------------
SCF CONVERGENCE
---------------

  Last Energy change         ...    9.4210e-07  Tolerance :   1.0000e-06
  Last MAX-Density change    ...    9.4349e-05  Tolerance :   1.0000e-05
  Last RMS-Density change    ...    8.3155e-06  Tolerance :   1.0000e-06
  Last DIIS Error            ...    2.0426e-03  Tolerance :   1.0000e-06
  Last Orbital Gradient      ...    7.2536e-05  Tolerance :   5.0000e-05
  Last Orbital Rotation      ...    1.1839e-04  Tolerance :   5.0000e-05


----------------
ORBITAL ENERGIES
----------------

  NO   OCC          E(Eh)            E(eV) 
   0   2.0000     -20.620149      -561.1028 
   1   2.0000     -20.556394      -559.3679 
   2   2.0000     -15.561472      -423.4492 
   3   2.0000     -11.385618      -309.8184 
   4   2.0000     -11.273817      -306.7762 
   5   2.0000      -1.470424       -40.0123 
   6   2.0000      -1.364046       -37.1176 
   7   2.0000      -1.199060       -32.6281 
   8   2.0000      -0.968548       -26.3555 
   9   2.0000      -0.829818       -22.5805 
  10   2.0000      -0.711593       -19.3634 
  11   2.0000      -0.693563       -18.8728 
  12   2.0000      -0.672596       -18.3023 
  13   2.0000      -0.643156       -17.5012 
  14   2.0000      -0.590103       -16.0575 
  15   2.0000      -0.572792       -15.5865 
  16   2.0000      -0.543155       -14.7800 
  17   2.0000      -0.482882       -13.1399 
  18   2.0000      -0.473064       -12.8727 
  19   2.0000      -0.398375       -10.8403 
  20   0.0000       0.176292         4.7972 
  21   0.0000       0.214649         5.8409 
  22   0.0000       0.249932         6.8010 
  23   0.0000       0.282379         7.6839 
  24   0.0000       0.288073         7.8389 
  25   0.0000       0.328014         8.9257 
  26   0.0000       0.398922        10.8552 
  27   0.0000       0.432978        11.7819 
  28   0.0000       0.500117        13.6089 
  29   0.0000       0.532206        14.4821 
  30   0.0000       0.754095        20.5200 
*Only the first 10 virtual orbitals were printed.

                    ********************************
                    * MULLIKEN POPULATION ANALYSIS *
                    ********************************

-----------------------
MULLIKEN ATOMIC CHARGES
-----------------------
   0 C :   -0.090359
   1 C :    0.753844
   2 H :    0.278431
   3 H :    0.281897
   4 N :   -0.699049
   5 O :   -0.637806
   6 H :    0.152490
   7 H :    0.163785
   8 H :    0.372492
   9 O :   -0.575724
Sum of atomic charges:    0.0000000

--------------------------------
MULLIKEN REDUCED ORBITAL CHARGES
--------------------------------
  0 C s       :     3.223379  s :     3.223379
      pz      :     0.911028  p :     2.803584
      px      :     1.119784
      py      :     0.772772
      dz2     :     0.005082  d :     0.063397
      dxz     :     0.013607
      dyz     :     0.020618
      dx2y2   :     0.019361
      dxy     :     0.004729

  1 C s       :     2.965321  s :     2.965321
      pz      :     0.741751  p :     2.134422
      px      :     0.625751
      py      :     0.766919
      dz2     :     0.016921  d :     0.146414
      dxz     :     0.034558
      dyz     :     0.020024
      dx2y2   :     0.046207
      dxy     :     0.028704

  2 H s       :     0.695396  s :     0.695396
      pz      :     0.008989  p :     0.026173
      px      :     0.011930
      py      :     0.005254

  3 H s       :     0.691914  s :     0.691914
      pz      :     0.008252  p :     0.026189
      px      :     0.012012
      py      :     0.005925

  4 N s       :     3.610857  s :     3.610857
      pz      :     1.458858  p :     4.053429
      px      :     1.193355
      py      :     1.401216
      dz2     :     0.002492  d :     0.034763
      dxz     :     0.015579
      dyz     :     0.003540
      dx2y2   :     0.011130
      dxy     :     0.002024

  5 O s       :     3.830697  s :     3.830697
      pz      :     1.571253  p :     4.782050
      px      :     1.535822
      py      :     1.674975
      dz2     :     0.002344  d :     0.025059
      dxz     :     0.004694
      dyz     :     0.005743
      dx2y2   :     0.009058
      dxy     :     0.003220

  6 H s       :     0.835131  s :     0.835131
      pz      :     0.004409  p :     0.012379
      px      :     0.006687
      py      :     0.001283

  7 H s       :     0.823940  s :     0.823940
      pz      :     0.003855  p :     0.012275
      px      :     0.007085
      py      :     0.001335

  8 H s       :     0.585986  s :     0.585986
      pz      :     0.017762  p :     0.041522
      px      :     0.006309
      py      :     0.017450

  9 O s       :     3.870576  s :     3.870576
      pz      :     1.619294  p :     4.672295
      px      :     1.560827
      py      :     1.492174
      dz2     :     0.004227  d :     0.032853
      dxz     :     0.007274
      dyz     :     0.003388
      dx2y2   :     0.008973
      dxy     :     0.008991



                     *******************************
                     * LOEWDIN POPULATION ANALYSIS *
                     *******************************

----------------------
LOEWDIN ATOMIC CHARGES
----------------------
   0 C :   -0.052343
   1 C :    0.222605
   2 H :    0.132428
   3 H :    0.133113
   4 N :   -0.281639
   5 O :   -0.218552
   6 H :    0.081846
   7 H :    0.084967
   8 H :    0.200423
   9 O :   -0.302849

-------------------------------
LOEWDIN REDUCED ORBITAL CHARGES
-------------------------------
  0 C s       :     2.887656  s :     2.887656
      pz      :     1.011530  p :     3.042525
      px      :     1.097460
      py      :     0.933535
      dz2     :     0.010253  d :     0.122162
      dxz     :     0.023324
      dyz     :     0.042480
      dx2y2   :     0.037135
      dxy     :     0.008971

  1 C s       :     2.850629  s :     2.850629
      pz      :     0.840738  p :     2.611192
      px      :     0.887869
      py      :     0.882584
      dz2     :     0.036929  d :     0.315574
      dxz     :     0.072547
      dyz     :     0.040477
      dx2y2   :     0.102417
      dxy     :     0.063204

  2 H s       :     0.785843  s :     0.785843
      pz      :     0.029252  p :     0.081729
      px      :     0.034885
      py      :     0.017592

  3 H s       :     0.784918  s :     0.784918
      pz      :     0.026849  p :     0.081969
      px      :     0.035747
      py      :     0.019374

  4 N s       :     3.191772  s :     3.191772
      pz      :     1.440070  p :     4.028912
      px      :     1.180708
      py      :     1.408133
      dz2     :     0.003819  d :     0.060955
      dxz     :     0.023536
      dyz     :     0.007770
      dx2y2   :     0.019812
      dxy     :     0.006019

  5 O s       :     3.460310  s :     3.460310
      pz      :     1.538592  p :     4.710579
      px      :     1.539048
      py      :     1.632938
      dz2     :     0.004777  d :     0.047662
      dxz     :     0.011048
      dyz     :     0.010324
      dx2y2   :     0.015267
      dxy     :     0.006246

  6 H s       :     0.878554  s :     0.878554
      pz      :     0.014465  p :     0.039600
      px      :     0.020164
      py      :     0.004971

  7 H s       :     0.875599  s :     0.875599
      pz      :     0.012890  p :     0.039435
      px      :     0.021586
      py      :     0.004959

  8 H s       :     0.679083  s :     0.679083
      pz      :     0.050047  p :     0.120493
      px      :     0.020219
      py      :     0.050227

  9 O s       :     3.548765  s :     3.548765
      pz      :     1.599376  p :     4.696495
      px      :     1.587799
      py      :     1.509320
      dz2     :     0.007200  d :     0.057590
      dxz     :     0.011058
      dyz     :     0.007061
      dx2y2   :     0.012957
      dxy     :     0.019313



                      *****************************
                      * MAYER POPULATION ANALYSIS *
                      *****************************

  NA   - Mulliken gross atomic population
  ZA   - Total nuclear charge
  QA   - Mulliken gross atomic charge
  VA   - Mayer's total valence
  BVA  - Mayer's bonded valence
  FA   - Mayer's free valence

  ATOM       NA         ZA         QA         VA         BVA        FA
  0 C      6.0904     6.0000    -0.0904     3.7505     3.7505     0.0000
  1 C      5.2462     6.0000     0.7538     3.7027     3.7027     0.0000
  2 H      0.7216     1.0000     0.2784     0.9005     0.9005     0.0000
  3 H      0.7181     1.0000     0.2819     0.9007     0.9007     0.0000
  4 N      7.6990     7.0000    -0.6990     2.7583     2.7583     0.0000
  5 O      8.6378     8.0000    -0.6378     1.8235     1.8235    -0.0000
  6 H      0.8475     1.0000     0.1525     0.9426     0.9426    -0.0000
  7 H      0.8362     1.0000     0.1638     0.9424     0.9424     0.0000
  8 H      0.6275     1.0000     0.3725     0.8716     0.8716    -0.0000
  9 O      8.5757     8.0000    -0.5757     1.9038     1.9038     0.0000

  Mayer bond orders larger than 0.100000
B(  0-C ,  1-C ) :   0.9096 B(  0-C ,  4-N ) :   0.9534 B(  0-C ,  6-H ) :   0.9586 
B(  0-C ,  7-H ) :   0.9662 B(  1-C ,  5-O ) :   0.9747 B(  1-C ,  9-O ) :   1.8394 
B(  2-H ,  4-N ) :   0.9049 B(  3-H ,  4-N ) :   0.9022 B(  5-O ,  8-H ) :   0.8405 


-------
TIMINGS
-------

Total SCF time: 0 days 0 hours 0 min 2 sec 

Total time                  ....       2.210 sec
Sum of individual times     ....       2.034 sec  ( 92.0%)

SCF preparation             ....       0.013 sec  (  0.6%)
Fock matrix formation       ....       2.008 sec  ( 90.9%)
  Startup                   ....       0.000 sec  (  0.0% of F)
  Coulomb+Exchange Fock     ....       2.178 sec  (108.5% of F)
Diagonalization             ....       0.000 sec  (  0.0%)
Density matrix formation    ....       0.001 sec  (  0.1%)
Total Energy calculation    ....       0.000 sec  (  0.0%)
Population analysis         ....       0.001 sec  (  0.0%)
Orbital Transformation      ....       0.001 sec  (  0.1%)
Orbital Orthonormalization  ....       0.000 sec  (  0.0%)
DIIS solution               ....       0.006 sec  (  0.3%)
SOSCF solution              ....       0.002 sec  (  0.1%)
Finished LeanSCF after   2.2 sec

Maximum memory used throughout the entire LEANSCF-calculation: 9.3 MB

------------------------------------------------------------------------------
                                ORCA  MP2 
------------------------------------------------------------------------------

Freezing NCore=10 chemical core electrons

----------
MP2 ENERGY (disk based algorithm)
----------

Dimension of the basis                      ...   95
Memory devoted to MP2                       ... 4096 MB   
Data format for buffers                     ... DOUBLE
Compression type for matrix containers      ... UNCOMPRESSED

-------------------------
SHARK HALF TRANSFORMATION (Exchange order)
-------------------------

Number of basis functions                   ...     95
Number of operators                         ...      1
   Operator  0:    5-  19 (p-index in (p*|q*))
   Operator  0:    5-  19 (q-index in (p*|q*)
Integral generator used                     ... SHARK
Contraction scheme used                     ... SEGMENTED CONTRACTION
MaxCore in resort                           ...   4096 MB

Half transformed integrals for op=   0      ... 2.SHARK_MNPQ0.tmp
Resorted half transformed integrals         ... 2.KAO_aa.tmp

Half trafo (segmented) done. Total time =  1.1 sec. integrals=  1.1 sec trafo=  0.1 sec

----------------------
SHARK INTEGRAL SORTING (Exchange)
----------------------

Input container                             ... 2.SHARK_MNPQ0.tmp
Output container                            ... 2.KAO_aa.tmp
Range of AO-indices                         ...    0 -   94
Range of bra indices i                      ...    5 -   19
Range of ket indices j                      ...    5 -   19
Symmetric i,j range                         ... YES
Number of (i,j) pairs generated             ...  120
Max Core memory in MB                       ...   4096

Available core memory in MB                 ...   4092.30
MB needed for one item                      ...      0.07
Fixed MB needed                             ...      0.00
Number of items                             ...       120
Number of batches                           ...         1
Items treated per batch                     ...       120
Batch   0                                   ...      0-   119 (   120)
   => Closing output file and leaving
done (  0.0 sec)

SHARK half integral transformation done. Total time =  1.1 sec.


Finished integral transformation - now doing MP2 part

OPERATOR COMBINATION   0   0: ij=(  5.. 19,  5.. 19)
  Internal MO   7
  Internal MO  10
  Internal MO  13
  Internal MO  16
  Internal MO  19
-----------------------------------------------
 MP2 CORRELATION ENERGY   :     -0.789756761 Eh
-----------------------------------------------


-------
TIMINGS
-------
Total time                :    1.143 sec
Integral trafo            :    1.135 sec ( 99.3%)
K(i,j)                    :    0.005 sec (  0.5%)
T(i,j)                    :    0.000 sec (  0.0%)

---------------------------------------
MP2 TOTAL ENERGY:     -283.630378984 Eh
---------------------------------------

Maximum memory used throughout the entire MP2-calculation: 19.6 MB

-------------------------   --------------------
FINAL SINGLE POINT ENERGY      -283.630378984108
-------------------------   --------------------


------------------------------------------------------------------------------
                              ORCA PROPERTY CALCULATIONS
------------------------------------------------------------------------------

GBWName                                 ... 2.gbw
Number of atoms                         ...     10
Number of basis functions               ...     95
Max core memory                         ...   4096 MB

Electric properties:
Dipole moment                           ... YES
Quadrupole moment                       ...  NO
Static polarizability (Dipole/Dipole)   ...  NO
Static polarizability (Dipole/Quad.)    ...  NO
Static polarizability (Quad./Quad.)     ...  NO
Static polarizability (Velocity)        ...  NO
Static hyperpolarizability              ...  NO

Atomic electric properties:
Dipole moment                           ...  NO
Quadrupole moment                       ...  NO
Static polarizability                   ...  NO

Choice of electric origin               ... Center of mass
Position of electric origin             ...    -9.486748    -3.686631     1.290157

General magnetic properties:
Magnetizability                         ...  NO

EPR properties:
g-Tensor (aka g-matrix)                 ...  NO
Zero-Field splitting spin-orbit         ...  NO
Zero-field splitting spin-spin          ...  NO
Hyperfine couplings                     ...  NO (   0 nuclei)
Quadrupole couplings                    ...  NO (   0 nuclei)
Contact density                         ...  NO (   0 nuclei)

NMR properties:
Chemical shifts                         ...  NO (   0 nuclei)
Spin-rotation constants                 ...  NO (   0 nuclei)
Spin-spin couplings                     ...  NO (   0 nuclei,    0 pairs)

Choice of magnetic origin               ... GIAO
Position of magnetic origin             ...     0.000000     0.000000     0.000000

Properties with geometric perturbations:
SCF Hessian                             ...  NO
IR spectrum                             ...  NO
VCD spectrum                            ...  NO
X-ray spectroscopy properties:
SCF XES/XAS/RIXS spectra                ...  NO

SCF SOC stabilization energy            ...  NO
Diagonal Born-Oppenheimer correction    ...  NO

-------------
DIPOLE MOMENT
-------------

Method             : SCF
Type of density    : Electron Density
Multiplicity       :   1
Irrep              :   0
Energy             :  -282.8406222228079514 Eh
Basis              : AO
                                X                 Y                 Z
Electronic contribution:      0.172468106      -3.295827361       1.570060101
Nuclear contribution   :      0.453129424       3.392589015      -1.248252156
                        -----------------------------------------
Total Dipole Moment    :      0.625597530       0.096761654       0.321807946
                        -----------------------------------------
Magnitude (a.u.)       :      0.710137621
Magnitude (Debye)      :      1.805026385



--------------------
Rotational spectrum 
--------------------
 
Rotational constants in cm-1:             0.293409             0.135818             0.108517 
Rotational constants in MHz :          8796.190137          4071.709964          3253.270983 

Dipole components along the rotational axes: 
x,y,z [a.u.] :     0.083674     0.692524    -0.133057 
x,y,z [Debye]:     0.212683     1.760257    -0.338205 

 

Dipole moment calculation done in   0.0 sec 

Maximum memory used throughout the entire PROP-calculation: 3.8 MB

--------------------------------
SUGGESTED CITATIONS FOR THIS RUN
--------------------------------

Below you find a list of papers that are relevant to this ORCA run
We neither can nor want to force you to cite these papers, but we appreciate if you do
You receive ORCA, which is the product of decades of hard work by many enthusiastic individuals, for free
The only thing we kindly ask in return is that you cite our papers,
We deeply appreciate it, if you show your appreciation for ORCA by not just citing the generic ORCA reference.

Please note that relegating all ORCA citations to the supporting information does *not* help us.
SI sections are not indexed - citations you put there will not count into any citation statistics
But we need these citations in order to attract the funding resources that allow us to do what we are doing

Therefore, if you are a happy ORCA user, please consider citing a few of the papers listed below in the main body of your paper

In addition to the list printed below, the program has created the file 2.bibtex that contains the list in bibtex format
You can import this file easily into all common literature databanks and citation aid programs


List of essential papers. We consider these as the minimum necessary citations

  1. Neese, F.
     Software update: the ORCA program system, version 6.0
     WIRES Comput. Molec. Sci. 2025 15(1), e70019
     doi.org/10.1002/wcms.7019

List of papers to cite with high priority. The work reported in these papers was absolutely
necessary for this run to complete.
Our perspective: the developers of density functionals and basis sets usually get cited in chemistry papers
Good! But without the algorithms to do something with them, the functionals or basis sets would not do anything.
Hence, in our opinion, the algorithm design and method developments papers are equally worthy of getting cited

  1. Neese, F.
     The SHARK Integral Generation and Digestion System
     J. Comp. Chem. 2022 44(3), 381
     doi.org/10.1002/jcc.26942

List of suggested additional citations. These are papers that are important in the 'surrounding' of 
of this run, or papers that preceded the highly important papers. If you like your results we are grateful for a citation.

  1. Neese, F.
     The ORCA program system
     WIRES Comput. Molec. Sci. 2012 2(1), 73-78
     doi.org/10.1002/wcms.81
  2. Neese, F.
     Software update: the ORCA program system, version 4.0
     WIRES Comput. Molec. Sci. 2018 8(1), 1-6
     doi.org/10.1002/wcms.1327
  3. Neese, F.; Wennmohs, F.; Becker, U.; Riplinger, C.
     The ORCA quantum chemistry program package
     J. Chem. Phys. 2020 152(22), 224108
     doi.org/10.1063/5.0004608
  4. Neese, F.
     Software update: The ORCA program system—Version 5.0
     WIRES Comput. Molec. Sci. 2022 12(1), e1606
     doi.org/10.1002/wcms.1606

List of optional additional citations

  1. Neese, F.
     Approximate second-order SCF convergence for spin unrestricted wavefunctions
     Chem. Phys. Lett. 2000 325(1-3), 93-98
     doi.org/10.1016/s0009-2614(00)00662-x

Timings for individual modules:

Sum of individual times          ...        3.651 sec (=   0.061 min)
Startup calculation              ...        0.166 sec (=   0.003 min)   4.6 %
SCF iterations                   ...        2.300 sec (=   0.038 min)  63.0 %
Property calculations            ...        0.020 sec (=   0.000 min)   0.5 %
MP2 module                       ...        1.164 sec (=   0.019 min)  31.9 %
                             ****ORCA TERMINATED NORMALLY****
TOTAL RUN TIME: 0 days 0 hours 0 minutes 3 seconds 686 msec
