
                                 *****************
                                 * O   R   C   A *
                                 *****************

                                            #,                                       
                                            ###                                      
                                            ####                                     
                                            #####                                    
                                            ######                                   
                                           ########,                                 
                                     ,,################,,,,,                         
                               ,,#################################,,                 
                          ,,##########################################,,             
                       ,#########################################, ''#####,          
                    ,#############################################,,   '####,        
                  ,##################################################,,,,####,       
                ,###########''''           ''''###############################       
              ,#####''   ,,,,##########,,,,          '''####'''          '####       
            ,##' ,,,,###########################,,,                        '##       
           ' ,,###''''                  '''############,,,                           
         ,,##''                                '''############,,,,        ,,,,,,###''
      ,#''                                            '''#######################'''  
     '                                                          ''''####''''         
             ,#######,   #######,   ,#######,      ##                                
            ,#'     '#,  ##    ##  ,#'     '#,    #''#        ,####,    ,#,          
            ##       ##  ##   ,#'  ##            #'  '#       #'       ,# #          
            ##       ##  #######   ##           ,######,      #####,      #          
            '#,     ,#'  ##    ##  '#,     ,#' ,#      #,     #,   #      #          
             '#######'   ##     ##  '#######'  #'      '#     '####' #    #          



                #########################################################
                #                        -***-                          #
                #          Department of theory and spectroscopy        #
                #                                                       #
                #                      Frank Neese                      #
                #                                                       #
                #     Directorship, Architecture, Infrastructure        #
                #                    SHARK, DRIVERS                     #
                #        Core code/Algorithms in most modules           #
                #                                                       #
                #        Max Planck Institute fuer Kohlenforschung      #
                #                Kaiser Wilhelm Platz 1                 #
                #                 D-45470 Muelheim/Ruhr                 #
                #                      Germany                          #
                #                                                       #
                #                  All rights reserved                  #
                #                        -***-                          #
                #########################################################


                         Program Version 6.1.0  -  RELEASE   -
                                (GIT: $679e74b$)
                          ($2025-06-10 18:02:51 +0200$)


 With contributions from (in alphabetic order):
[Max-Planck-Institut fuer Kohlenforschung]                               
  Daniel Aravena         : Magnetic Suceptibility                        
  Michael Atanasov       : Ab Initio Ligand Field Theory (pilot matlab implementation)
  Alexander A. Auer      : GIAO ZORA, VPT2 properties, NMR spectrum      
  Ute Becker             : All parallelization in ORCA, NUMFREQ, NUMCALC 
  Giovanni Bistoni       : ED, misc. LED, open-shell LED, HFLD           
  Dmytro Bykov           : pre 5.0 version of the SCF Hessian            
  Marcos Casanova-Páez   : Triplet and SCS-CIS(D). UHF-(DLPNO)-IP/EA/STEOM-CCSD. UHF-CVS-IP/STEOM-CCSD   
  Vijay G. Chilkuri      : MRCI spin determinant printing, contributions to CSF-ICE 
  Pauline Colinet        : FMM embedding                                 
  Dipayan Datta          : RHF DLPNO-CCSD density                        
  Achintya Kumar Dutta   : EOM-CC, STEOM-CC                              
  Nicolas Foglia         : Exact transition moments, OPA infrastructure, MCD improvements    
  Dmitry Ganyushin       : Spin-Orbit,Spin-Spin,Magnetic field MRCI      
  Miquel Garcia-Rates    : C-PCM and meta-GGA Hessian, CCSD/C-PCM, Gaussian charge scheme 
  Tiago L. C. Gouveia    : GS-ROHF, GS-ROCIS                             
  Yang Guo               : DLPNO-NEVPT2, F12-NEVPT2, CIM, IAO-localization        
  Andreas Hansen         : Spin unrestricted coupled pair/coupled cluster methods 
  Ingolf Harden          : AUTO-CI MPn and infrastructure                
  Benjamin Helmich-Paris : MC-RPA, TRAH-(SCF,CASSCF), AVAS, COSX integrals, SCF dyn. polar., MC-PDFT, srDFT 
  Lee Huntington         : MR-EOM, pCC                                   
  Robert Izsak           : Overlap fitted RIJCOSX, COSX-SCS-MP3, EOM     
  Riya Kayal             : Wick's Theorem for AUTO-CI, AUTO-CI UHF-CCSDT 
  Emily Kempfer          : AUTO-CI RHF CISDT and CCSDT, approximate NEVPT4
  Christian Kollmar      : KDIIS, OOCD, Brueckner-CCSD(T), CCSD density, CASPT2, CASPT2-K, improved NEVPT2 
  Axel Koslowski         : Symmetry handling                             
  Simone Kossmann        : meta-GGA functionals, TD-DFT gradient, OOMP2, (MP2 Hessian; deprecated post 5.0) 
  Lucas Lang             : DCDCAS, Hyperfine gauge corrections, ICE-SOC+SSC
  Marvin Lechner         : AUTO-CI (C++ implementation), FIC-MRCC        
  Spencer Leger          : CASSCF response                               
  Dagmar Lenk            : GEPOL surface, SMD, ORCA-2-JSON               
  Dimitrios Liakos       : Extrapolation schemes; Compound Job, Property file
  Dimitrios Manganas     : Further ROCIS development; embedding schemes. LFT, Crystal Embedding 
  Dimitrios Pantazis     : SARC Basis sets                               
  Anastasios Papadopoulos: AUTO-CI, single reference methods and gradients 
  Taras Petrenko         : pre 6.0 DFT Hessian and TD-DFT gradient,  ECA, NRVS 
  Petra Pikulova         : Analytic Raman intensities                    
  Peter Pinski           : DLPNO-MP2, DLPNO-MP2 Gradient                 
  Shashank Vittal Rao    : ES-AILFT, MagRelax                            
  Christoph Reimann      : Effective Core Potentials                     
  Marius Retegan         : Local ZFS, SOC                                
  Christoph Riplinger    : Optimizer, TS searches, QM/MM, DLPNO-CCSD(T), (RO)-DLPNO pert. Triples 
  Michael Roemelt        : Original ROCIS implementation, recursive CI coupling coefficients
  Masaaki Saitow         : Open-shell DLPNO-CCSD energy and density      
  Barbara Sandhoefer     : DKH picture change effects                    
  Yorick L. A. Schmerwitz: GMF and freeze-and-release deltaSCF, NEB S-IDPP initial path                    
  Kantharuban Sivalingam : CASSCF convergence/infrastructure, NEVPT2, NEVPT3, NEVPT4(SD), FIC-MRCI and CEPA variants
  Bernardo de Souza      : ESD, SOC TD-DFT                               
  Georgi L. Stoychev     : AutoAux, RI-MP2 NMR, DLPNO-MP2 response, X2C  
  Van Anh Tran           : RI-MP2 g-tensors                              
  Willem Van den Heuvel  : Paramagnetic NMR                              
  Zikuan Wang            : NOTCH, Electric field optimization            
  Frank Wennmohs         : Technical directorship and infrastructure     
  Hang Xu                : AUTO-CI-Response properties                   
                                                                         
[FACCTs GmbH]                                                            
  Markus Bursch, Nicolas Foglia, Miquel Garcia-Rates, Ingolf Harden, Hagen Neugebauer, Anastasios Papadopoulos, 
  Christoph Riplinger, Bernardo de Souza, Georgi L. Stoychev                                                    
                                                                 
  APM, various basis sets, CI-OPT, improved COSX, DLPNO-Multilevel,           
  DOCKER, DRACO, updates on ESD, Fragmentator, GOAT, IRC, LR-CPCM, L-BFGS, MBIS, meta-GGA TD-DFT gradient, ML-optimized integration grids, 
  MM, NACMEs, nearIR, NEB, NEB-TS, NL-DFT gradient (VV10), 2- and 3-layer-ONIOM, interface openCOSMO-RS, QMMM,   
  Crystal-QMMM, RESP, rigid body optimization, SF, symmetry and pop. for TD-DFT, various functionals, SOLVATOR                                   
                                                                         
[Other institutions]                                                     
  V. Asgeirsson          : NEB                                           
  Christoph Bannwarth    : sTDA-DFT, sTD-DFT, PBEh-3c, B97-3c, D3        
  Giovanni Bistoni       : ETS/NOCV, ADLD/ADEX, COVALED                  
  Martin Brehm           : Molecular dynamics                            
  Ronald Cardenas        : ETS/NOCV                                      
  Martina Colucci        : COVALED                                       
  Sebastian Ehlert       : rSCAN, r2SCAN, r2SCAN-3c, D4, dhf basis sets  
  Marvin Friede          : D4 for Fr, Ra, Ac-Lr                          
  Lars Goerigk           : TD-DFT with DH, B97 family of functionals     
  Stefan Grimme          : VdW corrections, initial TS optimization, DFT functionals, gCP, sTDA/sTD-DF 
  Waldemar Hujo          : DFT-NL                                        
  H. Jonsson             : NEB                                           
  Holger Kruse           : gCP                                           
  Marcel Mueller         : wB97X-3c, vDZP basis set                      
  Hagen Neugebauer       : wr2SCAN, Native XTB                           
  Gianluca Regni         : ADLD/ADEX                                     
  Tobias Risthaus        : pre 6.0 range-separated hybrid DFT and stability analysis
  Lukas Wittmann         : regularized MP2, r2SCAN double-hybrids, wr2SCAN        
                                                                         
We gratefully acknowledge several colleagues who have allowed us to      
interface, adapt or use parts of their codes:                            
  Ed Valeev, F. Pavosevic, A. Kumar             : LibInt (2-el integral package), F12 methods 
  Garnet Chan, S. Sharma, J. Yang, R. Olivares  : DMRG                   
  Ulf Ekstrom                                   : XCFun DFT Library      
  Mihaly Kallay                                 : mrcc  (arbitrary order and MRCC methods)
  Frank Weinhold                                : gennbo (NPA and NBO analysis)           
  Simon Mueller                                 : openCOSMO-RS                            
  Christopher J. Cramer and Donald G. Truhlar   : smd solvation model                     
  S Lehtola, MJT Oliveira, MAL Marques          : LibXC Library                           
  Liviu Ungur et al                             : ANISO software                          


 Your calculation uses the libint2 library for the computation of 2-el integrals
 For citations please refer to: http://libint.valeyev.net

 Your ORCA version has been built with support for libXC version: 7.0.0
 For citations please refer to: https://libxc.gitlab.io

 This ORCA versions uses:
   CBLAS   interface :  Fast vector & matrix operations
   LAPACKE interface :  Fast linear algebra routines
   SCALAPACK package :  Parallel linear algebra routines
   Shared memory     :  Shared parallel matrices
   BLAS/LAPACK       :  OpenBLAS 0.3.29  USE64BITINT DYNAMIC_ARCH NO_AFFINITY Haswell SINGLE_THREADED
        Core in use  :  Haswell
   Copyright (c) 2011-2014, The OpenBLAS Project


  ***********************************
  * Starting time: Thu Aug 14 00:47:04 2025
  * Host name:     CHEMLAB02
  * Process ID:    1542208
  * Working dir.:  /home/vivek/mm-project/vivek/MP2/a/1
  ***********************************



***************************************
The coordinates will be read from file: /home/vivek/mm-project/vivek/xtb-goat/a/A_CONF/1.xyz
***************************************


================================================================================

----- Orbital basis set information -----
Your calculation utilizes the basis: 6-31G**
   H-He, Li-Ne : W. J. Hehre, R. Ditchfield and J.A. Pople, J. Chem. Phys. 56, 2257 (1972).
                 Note: He and Ne are unpublished basis sets taken from the Gaussian program.
                 Note: Li and B from J. D. Dill and J. A. Pople, J. Chem. Phys. 62, 2921 (1975).
   Na - Ar     : M. M. Francl, W. J. Pietro, W. J. Hehre, J. S. Binkley, M. S. Gordon, 
                 D. J. DeFrees and J. A. Pople, J. Chem. Phys. 77, 3654 (1982).
   K - Zn      : V. A. Rassolov, J. A. Pople, M. A. Ratner, and T. L. Windus, J. Chem. Phys. 109, 1223 (1998).

================================================================================
                                        WARNINGS
                       Please study these warnings very carefully!
================================================================================


WARNING: No MP2 level density has been requested!
         To calculate MP2 level properties use
         %mp2 Density relaxed end
         or
         %mp2 Density unrelaxed end

WARNING: Post HF methods need fully converged wavefunctions
  ===> : Setting SCFConvForced true
         You can overwrite this default with %scf ConvForced false 


================================================================================
                                       INPUT FILE
================================================================================
NAME = 1.inp
|  1> ! MP2 6-31G** 
|  2> 
|  3> * xyzfile 0 1 /home/vivek/mm-project/vivek/xtb-goat/a/A_CONF/1.xyz
|  4> 
|  5>                          ****END OF INPUT****
================================================================================

                       ****************************
                       * Single Point Calculation *
                       ****************************

---------------------------------
CARTESIAN COORDINATES (ANGSTROEM)
---------------------------------
  C     -4.569035   -0.211003   -1.927694
  O     -3.895778   -0.487272   -0.972203
  O     -4.068199    0.400084   -3.011612
  C     -6.056569   -0.500552   -2.060290
  H     -3.120658    0.569512   -2.894343
  N     -6.690677   -0.086617   -3.290869
  H     -6.190817   -1.579892   -1.934780
  H     -6.559790   -0.014539   -1.218119
  H     -6.591663    0.914599   -3.420400
  H     -6.250306   -0.538367   -4.085224

----------------------------
CARTESIAN COORDINATES (A.U.)
----------------------------
  NO LB      ZA    FRAG     MASS         X           Y           Z
   0 C     6.0000    0    12.011   -8.634224   -0.398738   -3.642813
   1 O     8.0000    0    15.999   -7.361954   -0.920810   -1.837198
   2 O     8.0000    0    15.999   -7.687782    0.756050   -5.691122
   3 C     6.0000    0    12.011  -11.445257   -0.945907   -3.893385
   4 H     1.0000    0     1.008   -5.897189    1.076221   -5.469516
   5 N     7.0000    0    14.007  -12.643548   -0.163683   -6.218840
   6 H     1.0000    0     1.008  -11.698949   -2.985563   -3.656204
   7 H     1.0000    0     1.008  -12.396206   -0.027475   -2.301911
   8 H     1.0000    0     1.008  -12.456439    1.728343   -6.463620
   9 H     1.0000    0     1.008  -11.811366   -1.017366   -7.719954

--------------------------------
INTERNAL COORDINATES (ANGSTROEM)
--------------------------------
 C      0   0   0     0.000000000000     0.00000000     0.00000000
 O      1   0   0     1.201066352657     0.00000000     0.00000000
 O      1   2   0     1.341321290418   122.57210405     0.00000000
 C      1   2   3     1.521242985729   125.00780935   180.01170383
 H      3   1   2     0.969686299569   110.28787613     0.00000000
 N      4   1   2     1.444907594252   116.66922829   179.86839706
 H      4   1   2     1.094874014486   107.31006580   302.47926787
 H      4   1   2     1.094848201985   107.33159201    57.24057924
 H      6   4   1     1.014404776331   110.40597232   300.78572421
 H      6   4   1     1.014398853681   110.41551609    59.26206419

---------------------------
INTERNAL COORDINATES (A.U.)
---------------------------
 C      0   0   0     0.000000000000     0.00000000     0.00000000
 O      1   0   0     2.269686475189     0.00000000     0.00000000
 O      1   2   0     2.534729896488   122.57210405     0.00000000
 C      1   2   3     2.874732626176   125.00780935   180.01170383
 H      3   1   2     1.832441542001   110.28787613     0.00000000
 N      4   1   2     2.730479641959   116.66922829   179.86839706
 H      4   1   2     2.069012038526   107.31006580   302.47926787
 H      4   1   2     2.068963259967   107.33159201    57.24057924
 H      6   4   1     1.916947216208   110.40597232   300.78572421
 H      6   4   1     1.916936024020   110.41551609    59.26206419

---------------------
BASIS SET INFORMATION
---------------------
There are 4 groups of distinct atoms

 Group   1 Type C   : 10s4p1d contracted to 3s2p1d pattern {631/31/1}
 Group   2 Type O   : 10s4p1d contracted to 3s2p1d pattern {631/31/1}
 Group   3 Type H   : 4s1p contracted to 2s1p pattern {31/1}
 Group   4 Type N   : 10s4p1d contracted to 3s2p1d pattern {631/31/1}

Atom   0C    basis set group =>   1
Atom   1O    basis set group =>   2
Atom   2O    basis set group =>   2
Atom   3C    basis set group =>   1
Atom   4H    basis set group =>   3
Atom   5N    basis set group =>   4
Atom   6H    basis set group =>   3
Atom   7H    basis set group =>   3
Atom   8H    basis set group =>   3
Atom   9H    basis set group =>   3
------------------------------------------------------------------------------
                             ORCA STARTUP CALCULATIONS
------------------------------------------------------------------------------
------------------------------------------------------------------------------
                   ___                                                        
                  /   \      - P O W E R E D   B Y -                         
                 /     \                                                     
                 |  |  |   _    _      __       _____    __    __             
                 |  |  |  | |  | |    /  \     |  _  \  |  |  /  |          
                  \  \/   | |  | |   /    \    | | | |  |  | /  /          
                 / \  \   | |__| |  /  /\  \   | |_| |  |  |/  /          
                |  |  |   |  __  | /  /__\  \  |    /   |      \           
                |  |  |   | |  | | |   __   |  |    \   |  |\   \          
                \     /   | |  | | |  |  |  |  | |\  \  |  | \   \       
                 \___/    |_|  |_| |__|  |__|  |_| \__\ |__|  \__/        
                                                                              
                      - O R C A' S   B I G   F R I E N D -                    
                                      &                                       
                       - I N T E G R A L  F E E D E R -                       
                                                                              
 v1 FN, 2020, v2 2021, v3 2022-2024                                           
------------------------------------------------------------------------------


----------------------
SHARK INTEGRAL PACKAGE
----------------------

Number of atoms                             ...     10
Number of basis functions                   ...     95
Number of shells                            ...     45
Maximum angular momentum                    ...      2
Integral batch strategy                     ... SHARK/LIBINT Hybrid
RI-J (if used) integral strategy            ... SPLIT-RIJ (Revised 2003 algorithm where possible)
Printlevel                                  ...      1
Contraction scheme used                     ... SEGMENTED contraction
Prescreening option                         ... SCHWARTZ
   Thresh                                   ... 1.000e-10
   Tcut                                     ... 1.000e-11
   Tpresel                                  ... 1.000e-11 
Coulomb Range Separation                    ... NOT USED
Exchange Range Separation                   ... NOT USED
Multipole approximations                    ... NOT USED
Finite Nucleus Model                        ... NOT USED
CABS basis                                  ... NOT available
Auxiliary Coulomb fitting basis             ... NOT available
Auxiliary J/K fitting basis                 ... NOT available
Auxiliary Correlation fitting basis         ... NOT available
Auxiliary 'external' fitting basis          ... NOT available

Checking pre-screening integrals            ... done (  0.0 sec) Dimension = 45
   => SHARK Basis and OBASIS are compatible. Storing Pre-screening
Shell pair information
Shell pair cut-off parameter TPreSel        ...   1.0e-11
Total number of shell pairs                 ...      1035
Shell pairs after pre-screening             ...      1008
Total number of primitive shell pairs       ...      5170
Primitive shell pairs kept                  ...      3725
          la=0 lb=0:    314 shell pairs
          la=1 lb=0:    365 shell pairs
          la=1 lb=1:    116 shell pairs
          la=2 lb=0:    123 shell pairs
          la=2 lb=1:     75 shell pairs
          la=2 lb=2:     15 shell pairs

Checking whether 4 symmetric matrices of dimension 95 fit in memory
:Max Core in MB      =   4096.00
 MB in use           =      2.63
 MB left             =   4093.37
 MB needed           =      0.14
 Data fit in memory  = YES
Calculating Nuclear repulsion               ... done (  0.0 sec) ENN=    180.502618929197 Eh

Diagonalization of the overlap matrix:
Smallest eigenvalue                        ... 4.191e-03
Time for diagonalization                   ...    0.001 sec
Threshold for overlap eigenvalues          ... 1.000e-07
Number of eigenvalues below threshold      ... 0
Time for construction of square roots      ...    0.000 sec
Total time needed                          ...    0.001 sec

-------------------
DFT GRID GENERATION
-------------------

General Integration Accuracy     IntAcc      ... 4.388
Radial Grid Type                 RadialGrid  ... OptM3 with GC (2021)
Angular Grid (max. ang.)         AngularGrid ... 4 (Lebedev-302)
Angular grid pruning method      GridPruning ... 4 (adaptive)
Weight generation scheme         WeightScheme... mBecke (2022)
Basis function cutoff            BFCut       ... 1.0000e-10
Integration weight cutoff        WCut        ... 1.0000e-14
Partially contracted basis set               ... off
Rotationally invariant grid construction     ... off
Angular grids for H and He will be reduced by one unit

Total number of grid points                  ...    46583
Total number of batches                      ...      733
Average number of points per batch           ...       63
Average number of grid points per atom       ...     4658
Grids setup in   0.1 sec
Initializing property integral containers    ... done (  0.0 sec)

SHARK setup successfully completed in   0.2 seconds

Maximum memory used throughout the entire STARTUP-calculation: 17.7 MB
-------------------------------------------------------------------------------
                                 ORCA GUESS
                   Start orbitals & Density for SCF / CASSCF
-------------------------------------------------------------------------------

------------
SCF SETTINGS
------------
Hamiltonian:
 Ab initio Hamiltonian  Method          .... Hartree-Fock(GTOs)


General Settings:
 Integral files         IntName         .... 1
 Hartree-Fock type      HFTyp           .... RHF
 Total Charge           Charge          ....    0
 Multiplicity           Mult            ....    1
 Number of Electrons    NEL             ....   40
 Basis Dimension        Dim             ....   95
 Nuclear Repulsion      ENuc            ....    180.5026189292 Eh

Convergence Acceleration:
 AO-DIIS                CNVDIIS         .... on
   Start iteration      DIISMaxIt       ....    12
   Startup error        DIISStart       ....  0.200000
   # of expansion vecs  DIISMaxEq       ....     5
   Bias factor          DIISBfac        ....   1.050
   Max. coefficient     DIISMaxC        ....  10.000
 MO-DIIS                CNVKDIIS        .... off
 Trust-Rad. Augm. Hess. CNVTRAH         .... auto
   Auto Start mean grad. ratio tolernc. ....  1.125000
   Auto Start start iteration           ....    50
   Auto Start num. interpolation iter.  ....    10
   Max. Number of Micro iterations      ....    24
   Max. Number of Macro iterations      .... Maxiter - #DIIS iter
   Number of Davidson start vectors     ....     2
   Converg. threshold    (grad. norm)   ....   5.000e-05
   Grad. Scal. Fac. for Micro threshold ....   0.100
   Minimum threshold for Micro iter.    ....   1.000e-02
   NR start threshold (gradient norm)   ....   1.000e-04
   Initial trust radius                 ....   0.400
   Minimum AH scaling param. (alpha)    ....   1.000
   Maximum AH scaling param. (alpha)    .... 1000.000
   Quad. conv. algorithm                .... NR
   White noise on init. David. guess    .... on
   Maximum white noise                  ....   0.010
   Pseudo random numbers                .... off
   Inactive MOs                         .... canonical
   Orbital update algorithm             .... Taylor
   Preconditioner                       .... Diag
   Full preconditioner red. dimension   ....   250
 SOSCF                 CNVSOSCF           .... on
   Start iteration     SOSCFMaxIt         ....   150
   Startup grad/error  SOSCFStart         ....  0.003300
   Hessian update      SOSCFHessUp        .... L-BFGS
   Autom. constraints  SOSCFAutoConstrain .... off
 Level Shifting         CNVShift        .... on
   Level shift para.    LevelShift      ....    0.2500
   Turn off err/grad.   ShiftErr        ....    0.0010
 Zerner damping         CNVZerner       .... off
 Static damping         CNVDamp         .... on
   Fraction old density DampFac         ....    0.7000
   Max. Damping (<1)    DampMax         ....    0.9800
   Min. Damping (>=0)   DampMin         ....    0.0000
   Turn off err/grad.   DampErr         ....    0.1000

SCF Procedure:
 Maximum # iterations   MaxIter         ....   125
 SCF integral mode      SCFMode         .... Direct
   Integral package                     .... SHARK and LIBINT hybrid scheme
 Reset frequency        DirectResetFreq ....    20
 Integral Threshold     Thresh          ....  1.000e-10 Eh
 Primitive CutOff       TCut            ....  1.000e-11 Eh

Convergence Tolerance:
 Convergence Check Mode ConvCheckMode   .... Total+1el-Energy
 Convergence forced     ConvForced      .... 1
 Energy Change          TolE            ....  1.000e-06 Eh
 1-El. energy change                    ....  1.000e-03 Eh
 Orbital Gradient       TolG            ....  5.000e-05
 Orbital Rotation angle TolX            ....  5.000e-05
 DIIS Error             TolErr          ....  1.000e-06

------------------------------
INITIAL GUESS: MODEL POTENTIAL
------------------------------
Loading Hartree-Fock densities                     ... done
Calculating cut-offs                               ... done
Initializing the effective Hamiltonian             ... done
Setting up the integral package (SHARK)            ... done
Starting the Coulomb interaction                   ... done (   0.0 sec)
Making the grid                                    ... done (   0.0 sec)
Mapping shells                                     ... done
Starting the XC term evaluation                    ... done (   0.0 sec)
Transforming the Hamiltonian                       ... done (   0.0 sec)
Diagonalizing the Hamiltonian                      ... done (   0.0 sec)
Back transforming the eigenvectors                 ... done (   0.0 sec)
Now organizing SCF variables                       ... done
                      ------------------
                      INITIAL GUESS DONE (   0.1 sec)
                      ------------------
             **** ENERGY FILE WAS UPDATED (1.en.tmp) ****
Finished Guess after   0.1 sec
Maximum memory used throughout the entire GUESS-calculation: 6.1 MB

-------------------------------------------------------------------------------------------
                                      ORCA LEAN-SCF
                              memory conserving SCF solver
-------------------------------------------------------------------------------------------

----------------------------------------D-I-I-S--------------------------------------------
Iteration    Energy (Eh)           Delta-E    RMSDP     MaxDP     DIISErr   Damp  Time(sec)
-------------------------------------------------------------------------------------------
               ***  Starting incremental Fock matrix formation  ***
    1    -282.6017178741226417     0.00e+00  3.67e-03  6.61e-02  2.58e-01  0.700   0.2
    2    -282.6898711944525076    -8.82e-02  2.67e-03  4.70e-02  1.61e-01  0.700   0.2
                               ***Turning on AO-DIIS***
    3    -282.7401680470351266    -5.03e-02  1.37e-03  2.16e-02  9.16e-02  0.700   0.2
    4    -282.7716523065301999    -3.15e-02  3.08e-03  4.56e-02  6.16e-02  0.000   0.2
    5    -282.8415905423510139    -6.99e-02  4.07e-04  5.51e-03  5.27e-03  0.000   0.2
                              *** Initializing SOSCF ***
---------------------------------------S-O-S-C-F--------------------------------------
Iteration    Energy (Eh)           Delta-E    RMSDP     MaxDP     MaxGrad    Time(sec)
--------------------------------------------------------------------------------------
    6    -282.8419165621711500    -3.26e-04  2.04e-04  2.40e-03  3.12e-03     0.2
               *** Restarting incremental Fock matrix formation ***
    7    -282.8419948335740628    -7.83e-05  1.29e-04  2.19e-03  1.90e-03     0.2
    8    -282.8420205723705294    -2.57e-05  1.56e-04  2.04e-03  5.28e-04     0.2
    9    -282.8420298210545525    -9.25e-06  2.74e-05  3.08e-04  2.59e-04     0.2
   10    -282.8420307498637385    -9.29e-07  8.41e-06  8.86e-05  6.07e-05     0.2
                 **** Energy Check signals convergence ****

               *****************************************************
               *                     SUCCESS                       *
               *           SCF CONVERGED AFTER  10 CYCLES          *
               *****************************************************

             **** ENERGY FILE WAS UPDATED (1.en.tmp) ****

----------------
TOTAL SCF ENERGY
----------------

Total Energy       :       -282.84203082830436 Eh           -7696.52294 eV

Components:
Nuclear Repulsion  :        180.50261892919733 Eh            4911.72597 eV
Electronic Energy  :       -463.34464975750166 Eh          -12608.24891 eV
One Electron Energy:       -744.70469836182076 Eh          -20264.44507 eV
Two Electron Energy:        281.36004860431910 Eh            7656.19616 eV

Virial components:
Potential Energy   :       -565.24357595779520 Eh          -15381.05966 eV
Kinetic Energy     :        282.40154512949078 Eh            7684.53672 eV
Virial Ratio       :          2.00155978501680

---------------
SCF CONVERGENCE
---------------

  Last Energy change         ...    9.2881e-07  Tolerance :   1.0000e-06
  Last MAX-Density change    ...    8.8590e-05  Tolerance :   1.0000e-05
  Last RMS-Density change    ...    8.4075e-06  Tolerance :   1.0000e-06
  Last DIIS Error            ...    3.1158e-03  Tolerance :   1.0000e-06
  Last Orbital Gradient      ...    6.0725e-05  Tolerance :   5.0000e-05
  Last Orbital Rotation      ...    1.0179e-04  Tolerance :   5.0000e-05


----------------
ORBITAL ENERGIES
----------------

  NO   OCC          E(Eh)            E(eV) 
   0   2.0000     -20.621481      -561.1390 
   1   2.0000     -20.553315      -559.2841 
   2   2.0000     -15.554157      -423.2501 
   3   2.0000     -11.387051      -309.8574 
   4   2.0000     -11.275513      -306.8223 
   5   2.0000      -1.470836       -40.0235 
   6   2.0000      -1.363567       -37.1045 
   7   2.0000      -1.196316       -32.5534 
   8   2.0000      -0.967750       -26.3338 
   9   2.0000      -0.834305       -22.7026 
  10   2.0000      -0.701638       -19.0925 
  11   2.0000      -0.695586       -18.9279 
  12   2.0000      -0.689716       -18.7681 
  13   2.0000      -0.625146       -17.0111 
  14   2.0000      -0.586869       -15.9695 
  15   2.0000      -0.575690       -15.6653 
  16   2.0000      -0.541844       -14.7443 
  17   2.0000      -0.479733       -13.0542 
  18   2.0000      -0.475715       -12.9449 
  19   2.0000      -0.396073       -10.7777 
  20   0.0000       0.182151         4.9566 
  21   0.0000       0.207743         5.6530 
  22   0.0000       0.243303         6.6206 
  23   0.0000       0.277974         7.5640 
  24   0.0000       0.290979         7.9180 
  25   0.0000       0.351120         9.5545 
  26   0.0000       0.396244        10.7824 
  27   0.0000       0.439715        11.9653 
  28   0.0000       0.488859        13.3025 
  29   0.0000       0.587275        15.9806 
  30   0.0000       0.747126        20.3303 
*Only the first 10 virtual orbitals were printed.

                    ********************************
                    * MULLIKEN POPULATION ANALYSIS *
                    ********************************

-----------------------
MULLIKEN ATOMIC CHARGES
-----------------------
   0 C :    0.767350
   1 O :   -0.576733
   2 O :   -0.641237
   3 C :   -0.128430
   4 H :    0.372790
   5 N :   -0.685616
   6 H :    0.168970
   7 H :    0.169036
   8 H :    0.276910
   9 H :    0.276960
Sum of atomic charges:    0.0000000

--------------------------------
MULLIKEN REDUCED ORBITAL CHARGES
--------------------------------
  0 C s       :     2.958445  s :     2.958445
      pz      :     0.643555  p :     2.127419
      px      :     0.852462
      py      :     0.631402
      dz2     :     0.043026  d :     0.146785
      dxz     :     0.036667
      dyz     :     0.030948
      dx2y2   :     0.021175
      dxy     :     0.014969

  1 O s       :     3.869272  s :     3.869272
      pz      :     1.480722  p :     4.674582
      px      :     1.668335
      py      :     1.525525
      dz2     :     0.009644  d :     0.032879
      dxz     :     0.008439
      dyz     :     0.007546
      dx2y2   :     0.002536
      dxy     :     0.004714

  2 O s       :     3.831941  s :     3.831941
      pz      :     1.622672  p :     4.784023
      px      :     1.407904
      py      :     1.753447
      dz2     :     0.007994  d :     0.025274
      dxz     :     0.004701
      dyz     :     0.006319
      dx2y2   :     0.005509
      dxy     :     0.000751

  3 C s       :     3.224273  s :     3.224273
      pz      :     0.899123  p :     2.840635
      px      :     0.847450
      py      :     1.094062
      dz2     :     0.016705  d :     0.063522
      dxz     :     0.014129
      dyz     :     0.010062
      dx2y2   :     0.018323
      dxy     :     0.004303

  4 H s       :     0.585704  s :     0.585704
      pz      :     0.006737  p :     0.041506
      px      :     0.025939
      py      :     0.008830

  5 N s       :     3.598188  s :     3.598188
      pz      :     1.107472  p :     4.052864
      px      :     1.736216
      py      :     1.209176
      dz2     :     0.006859  d :     0.034564
      dxz     :     0.011826
      dyz     :     0.005111
      dx2y2   :     0.006967
      dxy     :     0.003801

  6 H s       :     0.818454  s :     0.818454
      pz      :     0.001418  p :     0.012576
      px      :     0.001931
      py      :     0.009227

  7 H s       :     0.818389  s :     0.818389
      pz      :     0.005958  p :     0.012574
      px      :     0.003496
      py      :     0.003120

  8 H s       :     0.696888  s :     0.696888
      pz      :     0.003723  p :     0.026202
      px      :     0.007012
      py      :     0.015466

  9 H s       :     0.696838  s :     0.696838
      pz      :     0.011276  p :     0.026202
      px      :     0.008303
      py      :     0.006623



                     *******************************
                     * LOEWDIN POPULATION ANALYSIS *
                     *******************************

----------------------
LOEWDIN ATOMIC CHARGES
----------------------
   0 C :    0.226328
   1 O :   -0.307231
   2 O :   -0.217362
   3 C :   -0.067771
   4 H :    0.200533
   5 N :   -0.284301
   6 H :    0.093274
   7 H :    0.093273
   8 H :    0.131620
   9 H :    0.131637

-------------------------------
LOEWDIN REDUCED ORBITAL CHARGES
-------------------------------
  0 C s       :     2.851599  s :     2.851599
      pz      :     0.888940  p :     2.605057
      px      :     1.006533
      py      :     0.709585
      dz2     :     0.095979  d :     0.317017
      dxz     :     0.079915
      dyz     :     0.068629
      dx2y2   :     0.043449
      dxy     :     0.029045

  1 O s       :     3.547665  s :     3.547665
      pz      :     1.526718  p :     4.701952
      px      :     1.673020
      py      :     1.502213
      dz2     :     0.015618  d :     0.057615
      dxz     :     0.019999
      dyz     :     0.010785
      dx2y2   :     0.005298
      dxy     :     0.005915

  2 O s       :     3.461021  s :     3.461021
      pz      :     1.614117  p :     4.708586
      px      :     1.381297
      py      :     1.713172
      dz2     :     0.013572  d :     0.047755
      dxz     :     0.010065
      dyz     :     0.010509
      dx2y2   :     0.010111
      dxy     :     0.003497

  3 C s       :     2.884158  s :     2.884158
      pz      :     0.987079  p :     3.059516
      px      :     0.987466
      py      :     1.084971
      dz2     :     0.032602  d :     0.124097
      dxz     :     0.028986
      dyz     :     0.018175
      dx2y2   :     0.036077
      dxy     :     0.008256

  4 H s       :     0.678620  s :     0.678620
      pz      :     0.022189  p :     0.120848
      px      :     0.071424
      py      :     0.027234

  5 N s       :     3.184099  s :     3.184099
      pz      :     1.141467  p :     4.039092
      px      :     1.693550
      py      :     1.204075
      dz2     :     0.014868  d :     0.061110
      dxz     :     0.018447
      dyz     :     0.012282
      dx2y2   :     0.010940
      dxy     :     0.004571

  6 H s       :     0.867179  s :     0.867179
      pz      :     0.005913  p :     0.039547
      px      :     0.006141
      py      :     0.027492

  7 H s       :     0.867178  s :     0.867178
      pz      :     0.018473  p :     0.039549
      px      :     0.010570
      py      :     0.010506

  8 H s       :     0.786778  s :     0.786778
      pz      :     0.011465  p :     0.081601
      px      :     0.023685
      py      :     0.046452

  9 H s       :     0.786757  s :     0.786757
      pz      :     0.033599  p :     0.081606
      px      :     0.028366
      py      :     0.019641



                      *****************************
                      * MAYER POPULATION ANALYSIS *
                      *****************************

  NA   - Mulliken gross atomic population
  ZA   - Total nuclear charge
  QA   - Mulliken gross atomic charge
  VA   - Mayer's total valence
  BVA  - Mayer's bonded valence
  FA   - Mayer's free valence

  ATOM       NA         ZA         QA         VA         BVA        FA
  0 C      5.2326     6.0000     0.7674     3.7040     3.7040     0.0000
  1 O      8.5767     8.0000    -0.5767     1.8917     1.8917    -0.0000
  2 O      8.6412     8.0000    -0.6412     1.8351     1.8351     0.0000
  3 C      6.1284     6.0000    -0.1284     3.7822     3.7822     0.0000
  4 H      0.6272     1.0000     0.3728     0.8716     0.8716    -0.0000
  5 N      7.6856     7.0000    -0.6856     2.7625     2.7625     0.0000
  6 H      0.8310     1.0000     0.1690     0.9417     0.9417     0.0000
  7 H      0.8310     1.0000     0.1690     0.9417     0.9417     0.0000
  8 H      0.7231     1.0000     0.2769     0.9034     0.9034    -0.0000
  9 H      0.7230     1.0000     0.2770     0.9034     0.9034     0.0000

  Mayer bond orders larger than 0.100000
B(  0-C ,  1-O ) :   1.8273 B(  0-C ,  2-O ) :   0.9763 B(  0-C ,  3-C ) :   0.9168 
B(  2-O ,  4-H ) :   0.8399 B(  3-C ,  5-N ) :   0.9639 B(  3-C ,  6-H ) :   0.9599 
B(  3-C ,  7-H ) :   0.9599 B(  5-N ,  8-H ) :   0.9074 B(  5-N ,  9-H ) :   0.9073 


-------
TIMINGS
-------

Total SCF time: 0 days 0 hours 0 min 2 sec 

Total time                  ....       2.218 sec
Sum of individual times     ....       2.040 sec  ( 92.0%)

SCF preparation             ....       0.012 sec  (  0.6%)
Fock matrix formation       ....       2.014 sec  ( 90.8%)
  Startup                   ....       0.000 sec  (  0.0% of F)
  Coulomb+Exchange Fock     ....       2.187 sec  (108.6% of F)
Diagonalization             ....       0.000 sec  (  0.0%)
Density matrix formation    ....       0.001 sec  (  0.0%)
Total Energy calculation    ....       0.001 sec  (  0.0%)
Population analysis         ....       0.001 sec  (  0.1%)
Orbital Transformation      ....       0.001 sec  (  0.1%)
Orbital Orthonormalization  ....       0.000 sec  (  0.0%)
DIIS solution               ....       0.006 sec  (  0.3%)
SOSCF solution              ....       0.002 sec  (  0.1%)
Finished LeanSCF after   2.2 sec

Maximum memory used throughout the entire LEANSCF-calculation: 9.3 MB

------------------------------------------------------------------------------
                                ORCA  MP2 
------------------------------------------------------------------------------

Freezing NCore=10 chemical core electrons

----------
MP2 ENERGY (disk based algorithm)
----------

Dimension of the basis                      ...   95
Memory devoted to MP2                       ... 4096 MB   
Data format for buffers                     ... DOUBLE
Compression type for matrix containers      ... UNCOMPRESSED

-------------------------
SHARK HALF TRANSFORMATION (Exchange order)
-------------------------

Number of basis functions                   ...     95
Number of operators                         ...      1
   Operator  0:    5-  19 (p-index in (p*|q*))
   Operator  0:    5-  19 (q-index in (p*|q*)
Integral generator used                     ... SHARK
Contraction scheme used                     ... SEGMENTED CONTRACTION
MaxCore in resort                           ...   4096 MB

Half transformed integrals for op=   0      ... 1.SHARK_MNPQ0.tmp
Resorted half transformed integrals         ... 1.KAO_aa.tmp

Half trafo (segmented) done. Total time =  1.1 sec. integrals=  1.1 sec trafo=  0.1 sec

----------------------
SHARK INTEGRAL SORTING (Exchange)
----------------------

Input container                             ... 1.SHARK_MNPQ0.tmp
Output container                            ... 1.KAO_aa.tmp
Range of AO-indices                         ...    0 -   94
Range of bra indices i                      ...    5 -   19
Range of ket indices j                      ...    5 -   19
Symmetric i,j range                         ... YES
Number of (i,j) pairs generated             ...  120
Max Core memory in MB                       ...   4096

Available core memory in MB                 ...   4092.31
MB needed for one item                      ...      0.07
Fixed MB needed                             ...      0.00
Number of items                             ...       120
Number of batches                           ...         1
Items treated per batch                     ...       120
Batch   0                                   ...      0-   119 (   120)
   => Closing output file and leaving
done (  0.0 sec)

SHARK half integral transformation done. Total time =  1.1 sec.


Finished integral transformation - now doing MP2 part

OPERATOR COMBINATION   0   0: ij=(  5.. 19,  5.. 19)
  Internal MO   7
  Internal MO  10
  Internal MO  13
  Internal MO  16
  Internal MO  19
-----------------------------------------------
 MP2 CORRELATION ENERGY   :     -0.789583412 Eh
-----------------------------------------------


-------
TIMINGS
-------
Total time                :    1.141 sec
Integral trafo            :    1.133 sec ( 99.3%)
K(i,j)                    :    0.005 sec (  0.5%)
T(i,j)                    :    0.000 sec (  0.0%)

---------------------------------------
MP2 TOTAL ENERGY:     -283.631614240 Eh
---------------------------------------

Maximum memory used throughout the entire MP2-calculation: 19.6 MB

-------------------------   --------------------
FINAL SINGLE POINT ENERGY      -283.631614240159
-------------------------   --------------------


------------------------------------------------------------------------------
                              ORCA PROPERTY CALCULATIONS
------------------------------------------------------------------------------

GBWName                                 ... 1.gbw
Number of atoms                         ...     10
Number of basis functions               ...     95
Max core memory                         ...   4096 MB

Electric properties:
Dipole moment                           ... YES
Quadrupole moment                       ...  NO
Static polarizability (Dipole/Dipole)   ...  NO
Static polarizability (Dipole/Quad.)    ...  NO
Static polarizability (Quad./Quad.)     ...  NO
Static polarizability (Velocity)        ...  NO
Static hyperpolarizability              ...  NO

Atomic electric properties:
Dipole moment                           ...  NO
Quadrupole moment                       ...  NO
Static polarizability                   ...  NO

Choice of electric origin               ... Center of mass
Position of electric origin             ...    -9.508143    -0.297266    -4.314629

General magnetic properties:
Magnetizability                         ...  NO

EPR properties:
g-Tensor (aka g-matrix)                 ...  NO
Zero-Field splitting spin-orbit         ...  NO
Zero-field splitting spin-spin          ...  NO
Hyperfine couplings                     ...  NO (   0 nuclei)
Quadrupole couplings                    ...  NO (   0 nuclei)
Contact density                         ...  NO (   0 nuclei)

NMR properties:
Chemical shifts                         ...  NO (   0 nuclei)
Spin-rotation constants                 ...  NO (   0 nuclei)
Spin-spin couplings                     ...  NO (   0 nuclei,    0 pairs)

Choice of magnetic origin               ... GIAO
Position of magnetic origin             ...     0.000000     0.000000     0.000000

Properties with geometric perturbations:
SCF Hessian                             ...  NO
IR spectrum                             ...  NO
VCD spectrum                            ...  NO
X-ray spectroscopy properties:
SCF XES/XAS/RIXS spectra                ...  NO

SCF SOC stabilization energy            ...  NO
Diagonal Born-Oppenheimer correction    ...  NO

-------------
DIPOLE MOMENT
-------------

Method             : SCF
Type of density    : Electron Density
Multiplicity       :   1
Irrep              :   0
Energy             :  -282.8420308283043596 Eh
Basis              : AO
                                X                 Y                 Z
Electronic contribution:      3.502601307       0.232106243       1.295987237
Nuclear contribution   :     -3.314033787       0.133076396      -2.001674939
                        -----------------------------------------
Total Dipole Moment    :      0.188567520       0.365182639      -0.705687702
                        -----------------------------------------
Magnitude (a.u.)       :      0.816646314
Magnitude (Debye)      :      2.075749968



--------------------
Rotational spectrum 
--------------------
 
Rotational constants in cm-1:             0.337748             0.135684             0.100142 
Rotational constants in MHz :         10125.438540          4067.714473          3002.179198 

Dipole components along the rotational axes: 
x,y,z [a.u.] :     0.201461    -0.791407     0.000475 
x,y,z [Debye]:     0.512072    -2.011596     0.001208 

 

Dipole moment calculation done in   0.0 sec 

Maximum memory used throughout the entire PROP-calculation: 3.8 MB

--------------------------------
SUGGESTED CITATIONS FOR THIS RUN
--------------------------------

Below you find a list of papers that are relevant to this ORCA run
We neither can nor want to force you to cite these papers, but we appreciate if you do
You receive ORCA, which is the product of decades of hard work by many enthusiastic individuals, for free
The only thing we kindly ask in return is that you cite our papers,
We deeply appreciate it, if you show your appreciation for ORCA by not just citing the generic ORCA reference.

Please note that relegating all ORCA citations to the supporting information does *not* help us.
SI sections are not indexed - citations you put there will not count into any citation statistics
But we need these citations in order to attract the funding resources that allow us to do what we are doing

Therefore, if you are a happy ORCA user, please consider citing a few of the papers listed below in the main body of your paper

In addition to the list printed below, the program has created the file 1.bibtex that contains the list in bibtex format
You can import this file easily into all common literature databanks and citation aid programs


List of essential papers. We consider these as the minimum necessary citations

  1. Neese, F.
     Software update: the ORCA program system, version 6.0
     WIRES Comput. Molec. Sci. 2025 15(1), e70019
     doi.org/10.1002/wcms.7019

List of papers to cite with high priority. The work reported in these papers was absolutely
necessary for this run to complete.
Our perspective: the developers of density functionals and basis sets usually get cited in chemistry papers
Good! But without the algorithms to do something with them, the functionals or basis sets would not do anything.
Hence, in our opinion, the algorithm design and method developments papers are equally worthy of getting cited

  1. Neese, F.
     The SHARK Integral Generation and Digestion System
     J. Comp. Chem. 2022 44(3), 381
     doi.org/10.1002/jcc.26942

List of suggested additional citations. These are papers that are important in the 'surrounding' of 
of this run, or papers that preceded the highly important papers. If you like your results we are grateful for a citation.

  1. Neese, F.
     The ORCA program system
     WIRES Comput. Molec. Sci. 2012 2(1), 73-78
     doi.org/10.1002/wcms.81
  2. Neese, F.
     Software update: the ORCA program system, version 4.0
     WIRES Comput. Molec. Sci. 2018 8(1), 1-6
     doi.org/10.1002/wcms.1327
  3. Neese, F.; Wennmohs, F.; Becker, U.; Riplinger, C.
     The ORCA quantum chemistry program package
     J. Chem. Phys. 2020 152(22), 224108
     doi.org/10.1063/5.0004608
  4. Neese, F.
     Software update: The ORCA program system—Version 5.0
     WIRES Comput. Molec. Sci. 2022 12(1), e1606
     doi.org/10.1002/wcms.1606

List of optional additional citations

  1. Neese, F.
     Approximate second-order SCF convergence for spin unrestricted wavefunctions
     Chem. Phys. Lett. 2000 325(1-3), 93-98
     doi.org/10.1016/s0009-2614(00)00662-x

Timings for individual modules:

Sum of individual times          ...        3.660 sec (=   0.061 min)
Startup calculation              ...        0.172 sec (=   0.003 min)   4.7 %
SCF iterations                   ...        2.306 sec (=   0.038 min)  63.0 %
Property calculations            ...        0.021 sec (=   0.000 min)   0.6 %
MP2 module                       ...        1.162 sec (=   0.019 min)  31.7 %
                             ****ORCA TERMINATED NORMALLY****
TOTAL RUN TIME: 0 days 0 hours 0 minutes 3 seconds 694 msec
