
                                 *****************
                                 * O   R   C   A *
                                 *****************

                                            #,                                       
                                            ###                                      
                                            ####                                     
                                            #####                                    
                                            ######                                   
                                           ########,                                 
                                     ,,################,,,,,                         
                               ,,#################################,,                 
                          ,,##########################################,,             
                       ,#########################################, ''#####,          
                    ,#############################################,,   '####,        
                  ,##################################################,,,,####,       
                ,###########''''           ''''###############################       
              ,#####''   ,,,,##########,,,,          '''####'''          '####       
            ,##' ,,,,###########################,,,                        '##       
           ' ,,###''''                  '''############,,,                           
         ,,##''                                '''############,,,,        ,,,,,,###''
      ,#''                                            '''#######################'''  
     '                                                          ''''####''''         
             ,#######,   #######,   ,#######,      ##                                
            ,#'     '#,  ##    ##  ,#'     '#,    #''#        ,####,    ,#,          
            ##       ##  ##   ,#'  ##            #'  '#       #'       ,# #          
            ##       ##  #######   ##           ,######,      #####,      #          
            '#,     ,#'  ##    ##  '#,     ,#' ,#      #,     #,   #      #          
             '#######'   ##     ##  '#######'  #'      '#     '####' #    #          



                #########################################################
                #                        -***-                          #
                #          Department of theory and spectroscopy        #
                #                                                       #
                #                      Frank Neese                      #
                #                                                       #
                #     Directorship, Architecture, Infrastructure        #
                #                    SHARK, DRIVERS                     #
                #        Core code/Algorithms in most modules           #
                #                                                       #
                #        Max Planck Institute fuer Kohlenforschung      #
                #                Kaiser Wilhelm Platz 1                 #
                #                 D-45470 Muelheim/Ruhr                 #
                #                      Germany                          #
                #                                                       #
                #                  All rights reserved                  #
                #                        -***-                          #
                #########################################################


                         Program Version 6.1.0  -  RELEASE   -
                                (GIT: $679e74b$)
                          ($2025-06-10 18:02:51 +0200$)


 With contributions from (in alphabetic order):
[Max-Planck-Institut fuer Kohlenforschung]                               
  Daniel Aravena         : Magnetic Suceptibility                        
  Michael Atanasov       : Ab Initio Ligand Field Theory (pilot matlab implementation)
  Alexander A. Auer      : GIAO ZORA, VPT2 properties, NMR spectrum      
  Ute Becker             : All parallelization in ORCA, NUMFREQ, NUMCALC 
  Giovanni Bistoni       : ED, misc. LED, open-shell LED, HFLD           
  Dmytro Bykov           : pre 5.0 version of the SCF Hessian            
  Marcos Casanova-Páez   : Triplet and SCS-CIS(D). UHF-(DLPNO)-IP/EA/STEOM-CCSD. UHF-CVS-IP/STEOM-CCSD   
  Vijay G. Chilkuri      : MRCI spin determinant printing, contributions to CSF-ICE 
  Pauline Colinet        : FMM embedding                                 
  Dipayan Datta          : RHF DLPNO-CCSD density                        
  Achintya Kumar Dutta   : EOM-CC, STEOM-CC                              
  Nicolas Foglia         : Exact transition moments, OPA infrastructure, MCD improvements    
  Dmitry Ganyushin       : Spin-Orbit,Spin-Spin,Magnetic field MRCI      
  Miquel Garcia-Rates    : C-PCM and meta-GGA Hessian, CCSD/C-PCM, Gaussian charge scheme 
  Tiago L. C. Gouveia    : GS-ROHF, GS-ROCIS                             
  Yang Guo               : DLPNO-NEVPT2, F12-NEVPT2, CIM, IAO-localization        
  Andreas Hansen         : Spin unrestricted coupled pair/coupled cluster methods 
  Ingolf Harden          : AUTO-CI MPn and infrastructure                
  Benjamin Helmich-Paris : MC-RPA, TRAH-(SCF,CASSCF), AVAS, COSX integrals, SCF dyn. polar., MC-PDFT, srDFT 
  Lee Huntington         : MR-EOM, pCC                                   
  Robert Izsak           : Overlap fitted RIJCOSX, COSX-SCS-MP3, EOM     
  Riya Kayal             : Wick's Theorem for AUTO-CI, AUTO-CI UHF-CCSDT 
  Emily Kempfer          : AUTO-CI RHF CISDT and CCSDT, approximate NEVPT4
  Christian Kollmar      : KDIIS, OOCD, Brueckner-CCSD(T), CCSD density, CASPT2, CASPT2-K, improved NEVPT2 
  Axel Koslowski         : Symmetry handling                             
  Simone Kossmann        : meta-GGA functionals, TD-DFT gradient, OOMP2, (MP2 Hessian; deprecated post 5.0) 
  Lucas Lang             : DCDCAS, Hyperfine gauge corrections, ICE-SOC+SSC
  Marvin Lechner         : AUTO-CI (C++ implementation), FIC-MRCC        
  Spencer Leger          : CASSCF response                               
  Dagmar Lenk            : GEPOL surface, SMD, ORCA-2-JSON               
  Dimitrios Liakos       : Extrapolation schemes; Compound Job, Property file
  Dimitrios Manganas     : Further ROCIS development; embedding schemes. LFT, Crystal Embedding 
  Dimitrios Pantazis     : SARC Basis sets                               
  Anastasios Papadopoulos: AUTO-CI, single reference methods and gradients 
  Taras Petrenko         : pre 6.0 DFT Hessian and TD-DFT gradient,  ECA, NRVS 
  Petra Pikulova         : Analytic Raman intensities                    
  Peter Pinski           : DLPNO-MP2, DLPNO-MP2 Gradient                 
  Shashank Vittal Rao    : ES-AILFT, MagRelax                            
  Christoph Reimann      : Effective Core Potentials                     
  Marius Retegan         : Local ZFS, SOC                                
  Christoph Riplinger    : Optimizer, TS searches, QM/MM, DLPNO-CCSD(T), (RO)-DLPNO pert. Triples 
  Michael Roemelt        : Original ROCIS implementation, recursive CI coupling coefficients
  Masaaki Saitow         : Open-shell DLPNO-CCSD energy and density      
  Barbara Sandhoefer     : DKH picture change effects                    
  Yorick L. A. Schmerwitz: GMF and freeze-and-release deltaSCF, NEB S-IDPP initial path                    
  Kantharuban Sivalingam : CASSCF convergence/infrastructure, NEVPT2, NEVPT3, NEVPT4(SD), FIC-MRCI and CEPA variants
  Bernardo de Souza      : ESD, SOC TD-DFT                               
  Georgi L. Stoychev     : AutoAux, RI-MP2 NMR, DLPNO-MP2 response, X2C  
  Van Anh Tran           : RI-MP2 g-tensors                              
  Willem Van den Heuvel  : Paramagnetic NMR                              
  Zikuan Wang            : NOTCH, Electric field optimization            
  Frank Wennmohs         : Technical directorship and infrastructure     
  Hang Xu                : AUTO-CI-Response properties                   
                                                                         
[FACCTs GmbH]                                                            
  Markus Bursch, Nicolas Foglia, Miquel Garcia-Rates, Ingolf Harden, Hagen Neugebauer, Anastasios Papadopoulos, 
  Christoph Riplinger, Bernardo de Souza, Georgi L. Stoychev                                                    
                                                                 
  APM, various basis sets, CI-OPT, improved COSX, DLPNO-Multilevel,           
  DOCKER, DRACO, updates on ESD, Fragmentator, GOAT, IRC, LR-CPCM, L-BFGS, MBIS, meta-GGA TD-DFT gradient, ML-optimized integration grids, 
  MM, NACMEs, nearIR, NEB, NEB-TS, NL-DFT gradient (VV10), 2- and 3-layer-ONIOM, interface openCOSMO-RS, QMMM,   
  Crystal-QMMM, RESP, rigid body optimization, SF, symmetry and pop. for TD-DFT, various functionals, SOLVATOR                                   
                                                                         
[Other institutions]                                                     
  V. Asgeirsson          : NEB                                           
  Christoph Bannwarth    : sTDA-DFT, sTD-DFT, PBEh-3c, B97-3c, D3        
  Giovanni Bistoni       : ETS/NOCV, ADLD/ADEX, COVALED                  
  Martin Brehm           : Molecular dynamics                            
  Ronald Cardenas        : ETS/NOCV                                      
  Martina Colucci        : COVALED                                       
  Sebastian Ehlert       : rSCAN, r2SCAN, r2SCAN-3c, D4, dhf basis sets  
  Marvin Friede          : D4 for Fr, Ra, Ac-Lr                          
  Lars Goerigk           : TD-DFT with DH, B97 family of functionals     
  Stefan Grimme          : VdW corrections, initial TS optimization, DFT functionals, gCP, sTDA/sTD-DF 
  Waldemar Hujo          : DFT-NL                                        
  H. Jonsson             : NEB                                           
  Holger Kruse           : gCP                                           
  Marcel Mueller         : wB97X-3c, vDZP basis set                      
  Hagen Neugebauer       : wr2SCAN, Native XTB                           
  Gianluca Regni         : ADLD/ADEX                                     
  Tobias Risthaus        : pre 6.0 range-separated hybrid DFT and stability analysis
  Lukas Wittmann         : regularized MP2, r2SCAN double-hybrids, wr2SCAN        
                                                                         
We gratefully acknowledge several colleagues who have allowed us to      
interface, adapt or use parts of their codes:                            
  Ed Valeev, F. Pavosevic, A. Kumar             : LibInt (2-el integral package), F12 methods 
  Garnet Chan, S. Sharma, J. Yang, R. Olivares  : DMRG                   
  Ulf Ekstrom                                   : XCFun DFT Library      
  Mihaly Kallay                                 : mrcc  (arbitrary order and MRCC methods)
  Frank Weinhold                                : gennbo (NPA and NBO analysis)           
  Simon Mueller                                 : openCOSMO-RS                            
  Christopher J. Cramer and Donald G. Truhlar   : smd solvation model                     
  S Lehtola, MJT Oliveira, MAL Marques          : LibXC Library                           
  Liviu Ungur et al                             : ANISO software                          


 Your calculation uses the libint2 library for the computation of 2-el integrals
 For citations please refer to: http://libint.valeyev.net

 Your ORCA version has been built with support for libXC version: 7.0.0
 For citations please refer to: https://libxc.gitlab.io

 This ORCA versions uses:
   CBLAS   interface :  Fast vector & matrix operations
   LAPACKE interface :  Fast linear algebra routines
   SCALAPACK package :  Parallel linear algebra routines
   Shared memory     :  Shared parallel matrices
   BLAS/LAPACK       :  OpenBLAS 0.3.29  USE64BITINT DYNAMIC_ARCH NO_AFFINITY Haswell SINGLE_THREADED
        Core in use  :  Haswell
   Copyright (c) 2011-2014, The OpenBLAS Project


  ***********************************
  * Starting time: Tue Sep  2 12:51:46 2025
  * Host name:     chemlab03
  * Process ID:    117078
  * Working dir.:  /home/vivek/mm-project/vivek/xtb-goat/MP2-opt/i/2
  ***********************************



***************************************
The coordinates will be read from file: /home/vivek/mm-project/vivek/xtb-goat/xtb-goat/i/I_CONF/2.xyz
***************************************


================================================================================

----- Orbital basis set information -----
Your calculation utilizes the basis: 6-31G**
   H-He, Li-Ne : W. J. Hehre, R. Ditchfield and J.A. Pople, J. Chem. Phys. 56, 2257 (1972).
                 Note: He and Ne are unpublished basis sets taken from the Gaussian program.
                 Note: Li and B from J. D. Dill and J. A. Pople, J. Chem. Phys. 62, 2921 (1975).
   Na - Ar     : M. M. Francl, W. J. Pietro, W. J. Hehre, J. S. Binkley, M. S. Gordon, 
                 D. J. DeFrees and J. A. Pople, J. Chem. Phys. 77, 3654 (1982).
   K - Zn      : V. A. Rassolov, J. A. Pople, M. A. Ratner, and T. L. Windus, J. Chem. Phys. 109, 1223 (1998).

================================================================================
                                        WARNINGS
                       Please study these warnings very carefully!
================================================================================


WARNING: The frozen-core approximation for MP2-gradient calculations is turned on by default.

WARNING: Geometry Optimization
  ===> : Switching off AutoStart
         For restart on a previous wavefunction, please use MOREAD

WARNING: Post HF methods need fully converged wavefunctions
  ===> : Setting SCFConvForced true
         You can overwrite this default with %scf ConvForced false 


================================================================================
                                       INPUT FILE
================================================================================
NAME = 2.inp
|  1> ! MP2 6-31G** opt
|  2> 
|  3> * xyzfile 0 1 /home/vivek/mm-project/vivek/xtb-goat/xtb-goat/i/I_CONF/2.xyz
|  4> 
|  5>                          ****END OF INPUT****
================================================================================

                       *****************************
                       * Geometry Optimization Run *
                       *****************************

Geometry optimization settings:
Update method            Update   .... BFGS
Choice of coordinates    CoordSys .... (2022) Redundant Internals
Initial Hessian          InHess   .... Almloef's Model
Max. no of cycles        MaxIter  .... 66

Convergence Tolerances:
Energy Change            TolE     ....  5.0000e-06 Eh
Max. Gradient            TolMAXG  ....  3.0000e-04 Eh/bohr
RMS Gradient             TolRMSG  ....  1.0000e-04 Eh/bohr
Max. Displacement        TolMAXD  ....  4.0000e-03 bohr
RMS Displacement         TolRMSD  ....  2.0000e-03 bohr
Strict Convergence                .... False

------------------------------------------------------------------------------
                        ORCA OPTIMIZATION COORDINATE SETUP
------------------------------------------------------------------------------

The optimization will be done in redundant internal coordinates (2022)
Making redundant internal coordinates   ...  (2022 redundants) done
Evaluating the initial hessian          ...  (Almloef) done
Evaluating the coordinates              ...  done
Calculating the B-matrix                .... done
Calculating the G-matrix                .... done
The number of degrees of freedom        ....   94

    -----------------------------------------------------------------
                    Redundant Internal Coordinates


    -----------------------------------------------------------------
         Definition                    Initial Value    Approx d2E/dq
    -----------------------------------------------------------------
      1. B(C   1,C   0)                  1.5240         0.381911   
      2. B(C   2,C   0)                  1.5323         0.370391   
      3. B(C   5,C   2)                  1.5463         0.351892   
      4. B(C   7,C   2)                  1.5277         0.376811   
      5. B(C   8,C   5)                  1.5230         0.383324   
      6. B(H   9,C   7)                  1.0865         0.364826   
      7. B(N  10,H   3)                  1.0146         0.425475   
      8. B(N  10,C   5)                  1.4495         0.449687   
      9. B(N  10,H   4)                  1.0151         0.424683   
     10. B(O  11,C   8)                  1.3380         0.677470   
     11. B(O  11,H   6)                  0.9707         0.499849   
     12. B(H  12,C   1)                  1.0867         0.364470   
     13. B(O  13,C   8)                  1.2047         1.105356   
     14. B(H  14,C   2)                  1.0948         0.353811   
     15. B(H  15,C   7)                  1.0871         0.363942   
     16. B(H  16,C   7)                  1.0872         0.363762   
     17. B(H  17,C   5)                  1.0990         0.348411   
     18. B(H  18,C   0)                  1.0909         0.358916   
     19. B(H  19,C   0)                  1.0927         0.356518   
     20. B(H  20,C   1)                  1.0885         0.362079   
     21. B(H  21,C   1)                  1.0880         0.362705   
     22. A(H  18,C   0,H  19)          107.2948         0.290233   
     23. A(C   1,C   0,C   2)          114.2724         0.364192   
     24. A(C   1,C   0,H  19)          108.3663         0.324963   
     25. A(C   2,C   0,H  18)          109.2100         0.323689   
     26. A(C   2,C   0,H  19)          107.3956         0.323333   
     27. A(C   1,C   0,H  18)          110.0403         0.325321   
     28. A(C   0,C   1,H  20)          110.4885         0.325791   
     29. A(H  20,C   1,H  21)          108.2434         0.291420   
     30. A(C   0,C   1,H  12)          111.6874         0.326144   
     31. A(H  12,C   1,H  20)          108.4856         0.291642   
     32. A(H  12,C   1,H  21)          107.7665         0.291722   
     33. A(C   0,C   1,H  21)          110.0610         0.325883   
     34. A(C   0,C   2,C   7)          109.5901         0.363356   
     35. A(C   0,C   2,C   5)          113.6701         0.359140   
     36. A(C   5,C   2,H  14)          107.1189         0.320232   
     37. A(C   0,C   2,H  14)          108.6691         0.322929   
     38. A(C   5,C   2,C   7)          108.4837         0.360192   
     39. A(C   7,C   2,H  14)          109.2125         0.323840   
     40. A(C   8,C   5,H  17)          105.1954         0.323934   
     41. A(C   2,C   5,H  17)          106.5938         0.319428   
     42. A(N  10,C   5,H  17)          107.6257         0.330575   
     43. A(C   2,C   5,C   8)          112.7387         0.361246   
     44. A(C   8,C   5,N  10)          112.3544         0.374416   
     45. A(C   2,C   5,N  10)          111.8019         0.368943   
     46. A(C   2,C   7,H   9)          109.5202         0.325476   
     47. A(H  15,C   7,H  16)          108.3999         0.291789   
     48. A(H   9,C   7,H  16)          108.5946         0.291900   
     49. A(C   2,C   7,H  16)          110.7707         0.325319   
     50. A(H   9,C   7,H  15)          108.9814         0.291923   
     51. A(C   2,C   7,H  15)          110.5262         0.325346   
     52. A(C   5,C   8,O  13)          124.2380         0.438852   
     53. A(C   5,C   8,O  11)          113.2087         0.402157   
     54. A(O  11,C   8,O  13)          122.4953         0.483707   
     55. A(H   3,N  10,H   4)          106.5047         0.301539   
     56. A(H   4,N  10,C   5)          109.6864         0.338701   
     57. A(H   3,N  10,C   5)          109.8088         0.338806   
     58. A(H   6,O  11,C   8)          110.1842         0.373265   
     59. D(H  20,C   1,C   0,H  19)    -65.5404         0.011619   
     60. D(H  12,C   1,C   0,H  18)     56.5698         0.011619   
     61. D(H  12,C   1,C   0,H  19)    173.6049         0.011619   
     62. D(H  12,C   1,C   0,C   2)    -66.7073         0.011619   
     63. D(H  20,C   1,C   0,H  18)    177.4245         0.011619   
     64. D(H  20,C   1,C   0,C   2)     54.1474         0.011619   
     65. D(C   5,C   2,C   0,C   1)     64.0257         0.010966   
     66. D(C   7,C   2,C   0,H  19)    -54.1807         0.010966   
     67. D(C   7,C   2,C   0,H  18)     61.8639         0.010966   
     68. D(C   7,C   2,C   0,C   1)   -174.4118         0.010966   
     69. D(C   5,C   2,C   0,H  18)    -59.6986         0.010966   
     70. D(C   5,C   2,C   0,H  19)   -175.7432         0.010966   
     71. D(C   8,C   5,C   2,H  14)     45.6954         0.010000   
     72. D(C   8,C   5,C   2,C   7)    163.4713         0.010000   
     73. D(C   8,C   5,C   2,C   0)    -74.3521         0.010000   
     74. D(N  10,C   5,C   2,H  14)    173.4151         0.010000   
     75. D(N  10,C   5,C   2,C   7)    -68.8089         0.010000   
     76. D(N  10,C   5,C   2,C   0)     53.3676         0.010000   
     77. D(H  15,C   7,C   2,H  14)    -65.7116         0.011327   
     78. D(H  15,C   7,C   2,C   5)    177.8547         0.011327   
     79. D(H  15,C   7,C   2,C   0)     53.2242         0.011327   
     80. D(H   9,C   7,C   2,H  14)    174.2074         0.011327   
     81. D(H   9,C   7,C   2,C   5)     57.7737         0.011327   
     82. D(H   9,C   7,C   2,C   0)    -66.8568         0.011327   
     83. D(O  13,C   8,C   5,N  10)      3.4544         0.010953   
     84. D(O  13,C   8,C   5,C   2)    130.8828         0.010953   
     85. D(O  11,C   8,C   5,H  17)     63.9341         0.010953   
     86. D(O  11,C   8,C   5,N  10)   -179.2606         0.010953   
     87. D(O  11,C   8,C   5,C   2)    -51.8322         0.010953   
     88. D(H   3,N  10,C   5,C   8)    -61.6334         0.017250   
     89. D(H   3,N  10,C   5,C   2)    170.4414         0.017250   
     90. D(H   4,N  10,C   5,C   8)     55.0833         0.017250   
     91. D(H   4,N  10,C   5,C   2)    -72.8420         0.017250   
     92. D(H   3,N  10,C   5,H  17)     53.7089         0.017250   
     93. D(H   6,O  11,C   8,O  13)     -1.1010         0.034162   
     94. D(H   6,O  11,C   8,C   5)   -178.4400         0.034162   
    -----------------------------------------------------------------

Number of atoms                         .... 22
Number of degrees of freedom            .... 94


         *************************************************************
         *                GEOMETRY OPTIMIZATION CYCLE   1            *
         *************************************************************
---------------------------------
CARTESIAN COORDINATES (ANGSTROEM)
---------------------------------
  C     -9.380475    5.006947   -0.445974
  C     -9.920263    3.605369   -0.704358
  C     -8.142262    5.048758    0.455756
  H     -5.703545    4.490454   -1.785181
  H     -7.290289    4.509342   -2.141372
  C     -6.906235    4.347829   -0.154086
  H     -7.346516    1.377419    1.066113
  C     -7.776263    6.501161    0.756239
  C     -7.015232    2.829085   -0.122028
  H     -7.446357    6.988770   -0.156873
  N     -6.601155    4.850813   -1.478869
  O     -7.312110    2.347241    1.090344
  H     -9.226405    3.009719   -1.291482
  O     -6.808101    2.114520   -1.069555
  H     -8.374351    4.534236    1.393828
  H     -8.635386    7.036607    1.152490
  H     -6.972703    6.553071    1.486786
  H     -6.055032    4.589360    0.497741
  H     -9.152386    5.499983   -1.391989
  H    -10.162070    5.591827    0.045008
  H    -10.107674    3.089936    0.235884
  H    -10.857273    3.661842   -1.254493

----------------------------
CARTESIAN COORDINATES (A.U.)
----------------------------
  NO LB      ZA    FRAG     MASS         X           Y           Z
   0 C     6.0000    0    12.011  -17.726528    9.461758   -0.842768
   1 C     6.0000    0    12.011  -18.746580    6.813160   -1.331044
   2 C     6.0000    0    12.011  -15.386646    9.540769    0.861253
   3 H     1.0000    0     1.008  -10.778137    8.485728   -3.373502
   4 H     1.0000    0     1.008  -13.776651    8.521421   -4.046606
   5 C     6.0000    0    12.011  -13.050893    8.216206   -0.291181
   6 H     1.0000    0     1.008  -13.882903    2.602944    2.014661
   7 C     6.0000    0    12.011  -14.695007   12.285414    1.429084
   8 C     6.0000    0    12.011  -13.256866    5.346196   -0.230600
   9 H     1.0000    0     1.008  -14.071575   13.206862   -0.296448
  10 N     7.0000    0    14.007  -12.474375    9.166709   -2.794657
  11 O     8.0000    0    15.999  -13.817886    4.435643    2.060451
  12 H     1.0000    0     1.008  -17.435379    5.687544   -2.440548
  13 O     8.0000    0    15.999  -12.865447    3.995863   -2.021166
  14 H     1.0000    0     1.008  -15.825231    8.568464    2.633953
  15 H     1.0000    0     1.008  -16.318514   13.297259    2.177891
  16 H     1.0000    0     1.008  -13.176498   12.383509    2.809618
  17 H     1.0000    0     1.008  -11.442352    8.672633    0.940594
  18 H     1.0000    0     1.008  -17.295504   10.393461   -2.630479
  19 H     1.0000    0     1.008  -19.203529   10.567022    0.085053
  20 H     1.0000    0     1.008  -19.100737    5.839132    0.445756
  21 H     1.0000    0     1.008  -20.517273    6.919878   -2.370649

--------------------------------
INTERNAL COORDINATES (ANGSTROEM)
--------------------------------
 C      0   0   0     0.000000000000     0.00000000     0.00000000
 C      1   0   0     1.523992550669     0.00000000     0.00000000
 C      1   2   0     1.532329455410   114.27239162     0.00000000
 H      3   1   2     3.358696542833   100.92703652    84.43875288
 H      4   3   1     1.626341879732    55.65213809   357.68858232
 C      3   1   2     1.546276541361   113.67010132    64.02568493
 H      6   3   1     3.241306776739    99.11201986   268.53090492
 C      3   1   2     1.527652028102   109.59010349   185.58819003
 C      6   3   1     1.522987195451   112.73866735   285.64788998
 H      8   3   1     1.086450370422   109.52018415   293.14319018
 N      4   3   1     1.014588761763    25.46492029    32.41240611
 O      7   6   3     0.970735302076    24.35891036   315.43022933
 H      2   1   3     1.086716340352   111.68742672   293.29273034
 O      9   6   3     1.204704665699   124.23803438   130.88280490
 H      3   1   2     1.094795786847   108.66908559   304.85901398
 H      8   3   1     1.087110981840   110.52623316    53.22420303
 H      8   3   1     1.087245506704   110.77067833   173.38829533
 H      6   3   1     1.098982820566   106.59380033   170.72230588
 H      1   2   3     1.090896233792   110.04026408   123.27703331
 H      1   2   3     1.092721419756   108.36633997   240.31219578
 H      2   1   3     1.088508315091   110.48846195    54.14743797
 H      2   1   3     1.088037699928   110.06097060   173.63466876

---------------------------
INTERNAL COORDINATES (A.U.)
---------------------------
 C      0   0   0     0.000000000000     0.00000000     0.00000000
 C      1   0   0     2.879928550900     0.00000000     0.00000000
 C      1   2   0     2.895683017666   114.27239162     0.00000000
 H      3   1   2     6.347016632903   100.92703652    84.43875288
 H      4   3   1     3.073340752821    55.65213809   357.68858232
 C      3   1   2     2.922039190480   113.67010132    64.02568493
 H      6   3   1     6.125182124060    99.11201986   268.53090492
 C      3   1   2     2.886843961041   109.59010349   185.58819003
 C      6   3   1     2.878028704872   112.73866735   285.64788998
 H      8   3   1     2.053093658196   109.52018415   293.14319018
 N      4   3   1     1.917294898286    25.46492029    32.41240611
 O      7   6   3     1.834423869453    24.35891036   315.43022933
 H      2   1   3     2.053596268523   111.68742672   293.29273034
 O      9   6   3     2.276561890429   124.23803438   130.88280490
 H      3   1   2     2.068864209712   108.66908559   304.85901398
 H      8   3   1     2.054342032855   110.52623316    53.22420303
 H      8   3   1     2.054596248007   110.77067833   173.38829533
 H      6   3   1     2.076776556755   106.59380033   170.72230588
 H      1   2   3     2.061495122393   110.04026408   123.27703331
 H      1   2   3     2.064944224008   108.36633997   240.31219578
 H      2   1   3     2.056982610018   110.48846195    54.14743797
 H      2   1   3     2.056093276245   110.06097060   173.63466876

---------------------
BASIS SET INFORMATION
---------------------
There are 4 groups of distinct atoms

 Group   1 Type C   : 10s4p1d contracted to 3s2p1d pattern {631/31/1}
 Group   2 Type H   : 4s1p contracted to 2s1p pattern {31/1}
 Group   3 Type N   : 10s4p1d contracted to 3s2p1d pattern {631/31/1}
 Group   4 Type O   : 10s4p1d contracted to 3s2p1d pattern {631/31/1}

Atom   0C    basis set group =>   1
Atom   1C    basis set group =>   1
Atom   2C    basis set group =>   1
Atom   3H    basis set group =>   2
Atom   4H    basis set group =>   2
Atom   5C    basis set group =>   1
Atom   6H    basis set group =>   2
Atom   7C    basis set group =>   1
Atom   8C    basis set group =>   1
Atom   9H    basis set group =>   2
Atom  10N    basis set group =>   3
Atom  11O    basis set group =>   4
Atom  12H    basis set group =>   2
Atom  13O    basis set group =>   4
Atom  14H    basis set group =>   2
Atom  15H    basis set group =>   2
Atom  16H    basis set group =>   2
Atom  17H    basis set group =>   2
Atom  18H    basis set group =>   2
Atom  19H    basis set group =>   2
Atom  20H    basis set group =>   2
Atom  21H    basis set group =>   2
------------------------------------------------------------------------------
                             ORCA STARTUP CALCULATIONS
------------------------------------------------------------------------------
------------------------------------------------------------------------------
                   ___                                                        
                  /   \      - P O W E R E D   B Y -                         
                 /     \                                                     
                 |  |  |   _    _      __       _____    __    __             
                 |  |  |  | |  | |    /  \     |  _  \  |  |  /  |          
                  \  \/   | |  | |   /    \    | | | |  |  | /  /          
                 / \  \   | |__| |  /  /\  \   | |_| |  |  |/  /          
                |  |  |   |  __  | /  /__\  \  |    /   |      \           
                |  |  |   | |  | | |   __   |  |    \   |  |\   \          
                \     /   | |  | | |  |  |  |  | |\  \  |  | \   \       
                 \___/    |_|  |_| |__|  |__|  |_| \__\ |__|  \__/        
                                                                              
                      - O R C A' S   B I G   F R I E N D -                    
                                      &                                       
                       - I N T E G R A L  F E E D E R -                       
                                                                              
 v1 FN, 2020, v2 2021, v3 2022-2024                                           
------------------------------------------------------------------------------


----------------------
SHARK INTEGRAL PACKAGE
----------------------

Number of atoms                             ...     22
Number of basis functions                   ...    191
Number of shells                            ...     93
Maximum angular momentum                    ...      2
Integral batch strategy                     ... SHARK/LIBINT Hybrid
RI-J (if used) integral strategy            ... SPLIT-RIJ (Revised 2003 algorithm where possible)
Printlevel                                  ...      1
Contraction scheme used                     ... SEGMENTED contraction
Prescreening option                         ... SCHWARTZ
   Thresh                                   ... 2.500e-11
   Tcut                                     ... 2.500e-12
   Tpresel                                  ... 2.500e-12 
Coulomb Range Separation                    ... NOT USED
Exchange Range Separation                   ... NOT USED
Multipole approximations                    ... NOT USED
Finite Nucleus Model                        ... NOT USED
CABS basis                                  ... NOT available
Auxiliary Coulomb fitting basis             ... NOT available
Auxiliary J/K fitting basis                 ... NOT available
Auxiliary Correlation fitting basis         ... NOT available
Auxiliary 'external' fitting basis          ... NOT available

Checking pre-screening integrals            ... done (  0.0 sec) Dimension = 93
   => SHARK Basis and OBASIS are compatible. Storing Pre-screening
Shell pair information
Shell pair cut-off parameter TPreSel        ...   2.5e-12
Total number of shell pairs                 ...      4371
Shell pairs after pre-screening             ...      4034
Total number of primitive shell pairs       ...     20328
Primitive shell pairs kept                  ...     12566
          la=0 lb=0:   1323 shell pairs
          la=1 lb=0:   1502 shell pairs
          la=1 lb=1:    451 shell pairs
          la=2 lb=0:    452 shell pairs
          la=2 lb=1:    262 shell pairs
          la=2 lb=2:     44 shell pairs

Checking whether 4 symmetric matrices of dimension 191 fit in memory
:Max Core in MB      =   4096.00
 MB in use           =      6.59
 MB left             =   4089.41
 MB needed           =      0.56
 Data fit in memory  = YES
Calculating Nuclear repulsion               ... done (  0.0 sec) ENN=    502.161229252949 Eh

Diagonalization of the overlap matrix:
Smallest eigenvalue                        ... 2.826e-03
Time for diagonalization                   ...    0.002 sec
Threshold for overlap eigenvalues          ... 1.000e-07
Number of eigenvalues below threshold      ... 0
Time for construction of square roots      ...    0.001 sec
Total time needed                          ...    0.003 sec

-------------------
DFT GRID GENERATION
-------------------

General Integration Accuracy     IntAcc      ... 4.388
Radial Grid Type                 RadialGrid  ... OptM3 with GC (2021)
Angular Grid (max. ang.)         AngularGrid ... 4 (Lebedev-302)
Angular grid pruning method      GridPruning ... 4 (adaptive)
Weight generation scheme         WeightScheme... mBecke (2022)
Basis function cutoff            BFCut       ... 1.0000e-11
Integration weight cutoff        WCut        ... 1.0000e-14
Partially contracted basis set               ... off
Rotationally invariant grid construction     ... off
Angular grids for H and He will be reduced by one unit

Total number of grid points                  ...    95436
Total number of batches                      ...     1504
Average number of points per batch           ...       63
Average number of grid points per atom       ...     4338
Grids setup in   0.4 sec
Initializing property integral containers    ... done (  0.0 sec)

SHARK setup successfully completed in   0.4 seconds

Maximum memory used throughout the entire STARTUP-calculation: 38.5 MB
-------------------------------------------------------------------------------
                                 ORCA GUESS
                   Start orbitals & Density for SCF / CASSCF
-------------------------------------------------------------------------------

------------
SCF SETTINGS
------------
Hamiltonian:
 Ab initio Hamiltonian  Method          .... Hartree-Fock(GTOs)


General Settings:
 Integral files         IntName         .... 2
 Hartree-Fock type      HFTyp           .... RHF
 Total Charge           Charge          ....    0
 Multiplicity           Mult            ....    1
 Number of Electrons    NEL             ....   72
 Basis Dimension        Dim             ....  191
 Nuclear Repulsion      ENuc            ....    502.1612292529 Eh

Convergence Acceleration:
 AO-DIIS                CNVDIIS         .... on
   Start iteration      DIISMaxIt       ....    12
   Startup error        DIISStart       ....  0.200000
   # of expansion vecs  DIISMaxEq       ....     5
   Bias factor          DIISBfac        ....   1.050
   Max. coefficient     DIISMaxC        ....  10.000
 MO-DIIS                CNVKDIIS        .... off
 Trust-Rad. Augm. Hess. CNVTRAH         .... auto
   Auto Start mean grad. ratio tolernc. ....  1.125000
   Auto Start start iteration           ....    50
   Auto Start num. interpolation iter.  ....    10
   Max. Number of Micro iterations      ....    24
   Max. Number of Macro iterations      .... Maxiter - #DIIS iter
   Number of Davidson start vectors     ....     2
   Converg. threshold    (grad. norm)   ....   1.000e-05
   Grad. Scal. Fac. for Micro threshold ....   0.100
   Minimum threshold for Micro iter.    ....   1.000e-02
   NR start threshold (gradient norm)   ....   1.000e-04
   Initial trust radius                 ....   0.400
   Minimum AH scaling param. (alpha)    ....   1.000
   Maximum AH scaling param. (alpha)    .... 1000.000
   Quad. conv. algorithm                .... NR
   White noise on init. David. guess    .... on
   Maximum white noise                  ....   0.010
   Pseudo random numbers                .... off
   Inactive MOs                         .... canonical
   Orbital update algorithm             .... Taylor
   Preconditioner                       .... Diag
   Full preconditioner red. dimension   ....   250
 SOSCF                 CNVSOSCF           .... on
   Start iteration     SOSCFMaxIt         ....   150
   Startup grad/error  SOSCFStart         ....  0.003300
   Hessian update      SOSCFHessUp        .... L-BFGS
   Autom. constraints  SOSCFAutoConstrain .... off
 Level Shifting         CNVShift        .... on
   Level shift para.    LevelShift      ....    0.2500
   Turn off err/grad.   ShiftErr        ....    0.0010
 Zerner damping         CNVZerner       .... off
 Static damping         CNVDamp         .... on
   Fraction old density DampFac         ....    0.7000
   Max. Damping (<1)    DampMax         ....    0.9800
   Min. Damping (>=0)   DampMin         ....    0.0000
   Turn off err/grad.   DampErr         ....    0.1000

SCF Procedure:
 Maximum # iterations   MaxIter         ....   125
 SCF integral mode      SCFMode         .... Direct
   Integral package                     .... SHARK and LIBINT hybrid scheme
 Reset frequency        DirectResetFreq ....    20
 Integral Threshold     Thresh          ....  2.500e-11 Eh
 Primitive CutOff       TCut            ....  2.500e-12 Eh

Convergence Tolerance:
 Convergence Check Mode ConvCheckMode   .... Total+1el-Energy
 Convergence forced     ConvForced      .... 1
 Energy Change          TolE            ....  1.000e-08 Eh
 1-El. energy change                    ....  1.000e-05 Eh
 Orbital Gradient       TolG            ....  1.000e-05
 Orbital Rotation angle TolX            ....  1.000e-05
 DIIS Error             TolErr          ....  5.000e-07

------------------------------
INITIAL GUESS: MODEL POTENTIAL
------------------------------
Loading Hartree-Fock densities                     ... done
Calculating cut-offs                               ... done
Initializing the effective Hamiltonian             ... done
Setting up the integral package (SHARK)            ... done
Starting the Coulomb interaction                   ... done (   0.1 sec)
Making the grid                                    ... done (   0.1 sec)
Mapping shells                                     ... done
Starting the XC term evaluation                    ... done (   0.1 sec)
Transforming the Hamiltonian                       ... done (   0.0 sec)
Diagonalizing the Hamiltonian                      ... done (   0.0 sec)
Back transforming the eigenvectors                 ... done (   0.0 sec)
Now organizing SCF variables                       ... done
                      ------------------
                      INITIAL GUESS DONE (   0.2 sec)
                      ------------------
             **** ENERGY FILE WAS UPDATED (2.en.tmp) ****
Finished Guess after   0.3 sec
Maximum memory used throughout the entire GUESS-calculation: 12.0 MB

-------------------------------------------------------------------------------------------
                                      ORCA LEAN-SCF
                              memory conserving SCF solver
-------------------------------------------------------------------------------------------

----------------------------------------D-I-I-S--------------------------------------------
Iteration    Energy (Eh)           Delta-E    RMSDP     MaxDP     DIISErr   Damp  Time(sec)
-------------------------------------------------------------------------------------------
               ***  Starting incremental Fock matrix formation  ***
    1    -438.5403897440505716     0.00e+00  2.49e-03  6.56e-02  2.54e-01  0.700   2.2
    2    -438.7034002837202706    -1.63e-01  1.88e-03  4.65e-02  1.57e-01  0.700   2.0
                               ***Turning on AO-DIIS***
    3    -438.7989181947432371    -9.55e-02  1.02e-03  2.26e-02  8.98e-02  0.700   2.0
    4    -438.8588600194319724    -5.99e-02  2.31e-03  4.84e-02  6.41e-02  0.000   2.0
    5    -438.9911925396065726    -1.32e-01  2.72e-04  6.78e-03  6.20e-03  0.000   2.0
    6    -438.9916773454857548    -4.85e-04  1.37e-04  3.05e-03  3.77e-03  0.000   2.0
                              *** Initializing SOSCF ***
---------------------------------------S-O-S-C-F--------------------------------------
Iteration    Energy (Eh)           Delta-E    RMSDP     MaxDP     MaxGrad    Time(sec)
--------------------------------------------------------------------------------------
    7    -438.9917824623721572    -1.05e-04  7.26e-05  2.50e-03  2.51e-03     1.9
               *** Restarting incremental Fock matrix formation ***
    8    -438.9918121685361712    -2.97e-05  3.64e-05  8.45e-04  4.56e-04     2.2
    9    -438.9918190972283583    -6.93e-06  3.87e-05  1.47e-03  3.30e-04     1.7
   10    -438.9918215641249617    -2.47e-06  7.56e-06  2.48e-04  8.73e-05     1.7
   11    -438.9918217984210287    -2.34e-07  2.51e-06  6.67e-05  4.20e-05     1.6
   12    -438.9918218299599175    -3.15e-08  7.96e-07  3.31e-05  1.15e-05     1.5
   13    -438.9918218322661687    -2.31e-09  3.69e-07  1.15e-05  2.51e-06     1.3
                 **** Energy Check signals convergence ****

               *****************************************************
               *                     SUCCESS                       *
               *           SCF CONVERGED AFTER  13 CYCLES          *
               *****************************************************

             **** ENERGY FILE WAS UPDATED (2.en.tmp) ****

----------------
TOTAL SCF ENERGY
----------------

Total Energy       :       -438.99182183261632 Eh          -11945.57477 eV

Components:
Nuclear Repulsion  :        502.16122925294860 Eh           13664.50174 eV
Electronic Energy  :       -941.15305108556493 Eh          -25610.07651 eV
One Electron Energy:      -1594.91080774075454 Eh          -43399.72948 eV
Two Electron Energy:        653.75775665518961 Eh           17789.65297 eV

Virial components:
Potential Energy   :       -877.60667021262054 Eh          -23880.89158 eV
Kinetic Energy     :        438.61484838000422 Eh           11935.31680 eV
Virial Ratio       :          2.00085946349971

---------------
SCF CONVERGENCE
---------------

  Last Energy change         ...    2.3063e-09  Tolerance :   1.0000e-08
  Last MAX-Density change    ...    1.1452e-05  Tolerance :   1.0000e-07
  Last RMS-Density change    ...    3.6858e-07  Tolerance :   5.0000e-09
  Last DIIS Error            ...    2.5094e-03  Tolerance :   5.0000e-07
  Last Orbital Gradient      ...    2.5134e-06  Tolerance :   1.0000e-05
  Last Orbital Rotation      ...    7.5469e-06  Tolerance :   1.0000e-05


----------------
ORBITAL ENERGIES
----------------

  NO   OCC          E(Eh)            E(eV) 
   0   2.0000     -20.618772      -561.0653 
   1   2.0000     -20.552605      -559.2648 
   2   2.0000     -15.547253      -423.0623 
   3   2.0000     -11.382753      -309.7404 
   4   2.0000     -11.272004      -306.7268 
   5   2.0000     -11.229811      -305.5787 
   6   2.0000     -11.218913      -305.2821 
   7   2.0000     -11.211442      -305.0788 
   8   2.0000     -11.205721      -304.9232 
   9   2.0000      -1.469113       -39.9766 
  10   2.0000      -1.361777       -37.0558 
  11   2.0000      -1.199011       -32.6267 
  12   2.0000      -1.082649       -29.4604 
  13   2.0000      -0.998748       -27.1773 
  14   2.0000      -0.955852       -26.0101 
  15   2.0000      -0.863126       -23.4869 
  16   2.0000      -0.822801       -22.3896 
  17   2.0000      -0.767968       -20.8975 
  18   2.0000      -0.702626       -19.1194 
  19   2.0000      -0.701515       -19.0892 
  20   2.0000      -0.687734       -18.7142 
  21   2.0000      -0.627004       -17.0616 
  22   2.0000      -0.606308       -16.4985 
  23   2.0000      -0.603837       -16.4312 
  24   2.0000      -0.594103       -16.1664 
  25   2.0000      -0.573113       -15.5952 
  26   2.0000      -0.562491       -15.3062 
  27   2.0000      -0.541936       -14.7468 
  28   2.0000      -0.521254       -14.1840 
  29   2.0000      -0.498850       -13.5744 
  30   2.0000      -0.488517       -13.2932 
  31   2.0000      -0.473996       -12.8981 
  32   2.0000      -0.459559       -12.5052 
  33   2.0000      -0.450780       -12.2663 
  34   2.0000      -0.443501       -12.0683 
  35   2.0000      -0.400207       -10.8902 
  36   0.0000       0.182601         4.9688 
  37   0.0000       0.212063         5.7705 
  38   0.0000       0.223996         6.0953 
  39   0.0000       0.251633         6.8473 
  40   0.0000       0.272391         7.4121 
  41   0.0000       0.284560         7.7433 
  42   0.0000       0.301414         8.2019 
  43   0.0000       0.306672         8.3450 
  44   0.0000       0.324609         8.8331 
  45   0.0000       0.337381         9.1806 
  46   0.0000       0.341762         9.2998 
*Only the first 10 virtual orbitals were printed.

                    ********************************
                    * MULLIKEN POPULATION ANALYSIS *
                    ********************************

-----------------------
MULLIKEN ATOMIC CHARGES
-----------------------
   0 C :   -0.216231
   1 C :   -0.365338
   2 C :   -0.137439
   3 H :    0.282199
   4 H :    0.279859
   5 C :   -0.038234
   6 H :    0.373005
   7 C :   -0.325639
   8 C :    0.801645
   9 H :    0.144803
  10 N :   -0.677235
  11 O :   -0.636330
  12 H :    0.123240
  13 O :   -0.597702
  14 H :    0.142083
  15 H :    0.109209
  16 H :    0.105872
  17 H :    0.158344
  18 H :    0.120976
  19 H :    0.117902
  20 H :    0.116368
  21 H :    0.118643
Sum of atomic charges:    0.0000000

--------------------------------
MULLIKEN REDUCED ORBITAL CHARGES
--------------------------------
  0 C s       :     3.236418  s :     3.236418
      pz      :     1.018608  p :     2.930625
      px      :     0.958617
      py      :     0.953401
      dz2     :     0.007985  d :     0.049188
      dxz     :     0.011315
      dyz     :     0.010068
      dx2y2   :     0.009240
      dxy     :     0.010580

  1 C s       :     3.261070  s :     3.261070
      pz      :     1.052508  p :     3.062143
      px      :     1.052289
      py      :     0.957346
      dz2     :     0.005641  d :     0.042125
      dxz     :     0.009798
      dyz     :     0.010035
      dx2y2   :     0.008496
      dxy     :     0.008156

  2 C s       :     3.230185  s :     3.230185
      pz      :     0.992981  p :     2.852538
      px      :     0.894299
      py      :     0.965257
      dz2     :     0.008970  d :     0.054716
      dxz     :     0.012065
      dyz     :     0.010888
      dx2y2   :     0.012684
      dxy     :     0.010110

  3 H s       :     0.691711  s :     0.691711
      pz      :     0.004698  p :     0.026090
      px      :     0.013457
      py      :     0.007934

  4 H s       :     0.694010  s :     0.694010
      pz      :     0.008908  p :     0.026131
      px      :     0.009361
      py      :     0.007862

  5 C s       :     3.206201  s :     3.206201
      pz      :     0.861708  p :     2.762037
      px      :     1.050904
      py      :     0.849424
      dz2     :     0.017709  d :     0.069997
      dxz     :     0.016410
      dyz     :     0.012035
      dx2y2   :     0.017852
      dxy     :     0.005990

  6 H s       :     0.585449  s :     0.585449
      pz      :     0.006131  p :     0.041546
      px      :     0.008756
      py      :     0.026659

  7 C s       :     3.247295  s :     3.247295
      pz      :     1.058619  p :     3.036299
      px      :     1.042805
      py      :     0.934875
      dz2     :     0.005837  d :     0.042045
      dxz     :     0.011639
      dyz     :     0.007875
      dx2y2   :     0.008818
      dxy     :     0.007876

  8 C s       :     2.946859  s :     2.946859
      pz      :     0.622277  p :     2.105953
      px      :     0.612950
      py      :     0.870726
      dz2     :     0.049070  d :     0.145543
      dxz     :     0.029020
      dyz     :     0.037746
      dx2y2   :     0.017012
      dxy     :     0.012694

  9 H s       :     0.842283  s :     0.842283
      pz      :     0.007328  p :     0.012914
      px      :     0.002539
      py      :     0.003047

 10 N s       :     3.601292  s :     3.601292
      pz      :     1.094945  p :     4.041370
      px      :     1.187785
      py      :     1.758640
      dz2     :     0.005980  d :     0.034574
      dxz     :     0.009198
      dyz     :     0.008938
      dx2y2   :     0.002285
      dxy     :     0.008172

 11 O s       :     3.838755  s :     3.838755
      pz      :     1.547333  p :     4.772171
      px      :     1.829533
      py      :     1.395305
      dz2     :     0.010862  d :     0.025405
      dxz     :     0.005217
      dyz     :     0.003856
      dx2y2   :     0.005130
      dxy     :     0.000340

 12 H s       :     0.863661  s :     0.863661
      pz      :     0.004105  p :     0.013099
      px      :     0.004773
      py      :     0.004221

 13 O s       :     3.880626  s :     3.880626
      pz      :     1.528906  p :     4.684464
      px      :     1.486329
      py      :     1.669229
      dz2     :     0.007809  d :     0.032612
      dxz     :     0.007995
      dyz     :     0.009178
      dx2y2   :     0.002622
      dxy     :     0.005009

 14 H s       :     0.845517  s :     0.845517
      pz      :     0.007147  p :     0.012400
      px      :     0.001873
      py      :     0.003380

 15 H s       :     0.878135  s :     0.878135
      pz      :     0.002798  p :     0.012656
      px      :     0.006228
      py      :     0.003630

 16 H s       :     0.881493  s :     0.881493
      pz      :     0.005089  p :     0.012635
      px      :     0.005739
      py      :     0.001807

 17 H s       :     0.829413  s :     0.829413
      pz      :     0.003911  p :     0.012243
      px      :     0.006136
      py      :     0.002196

 18 H s       :     0.866496  s :     0.866496
      pz      :     0.007126  p :     0.012528
      px      :     0.002104
      py      :     0.003298

 19 H s       :     0.869634  s :     0.869634
      pz      :     0.003190  p :     0.012465
      px      :     0.005455
      py      :     0.003819

 20 H s       :     0.871046  s :     0.871046
      pz      :     0.007152  p :     0.012586
      px      :     0.002000
      py      :     0.003434

 21 H s       :     0.868677  s :     0.868677
      pz      :     0.003670  p :     0.012679
      px      :     0.007160
      py      :     0.001850



                     *******************************
                     * LOEWDIN POPULATION ANALYSIS *
                     *******************************

----------------------
LOEWDIN ATOMIC CHARGES
----------------------
   0 C :   -0.114332
   1 C :   -0.195046
   2 C :   -0.062567
   3 H :    0.134768
   4 H :    0.131277
   5 C :   -0.026477
   6 H :    0.201572
   7 C :   -0.176234
   8 C :    0.227495
   9 H :    0.075967
  10 N :   -0.272663
  11 O :   -0.208007
  12 H :    0.066622
  13 O :   -0.316670
  14 H :    0.068702
  15 H :    0.061615
  16 H :    0.059951
  17 H :    0.085911
  18 H :    0.063009
  19 H :    0.064109
  20 H :    0.064020
  21 H :    0.066979

-------------------------------
LOEWDIN REDUCED ORBITAL CHARGES
-------------------------------
  0 C s       :     2.887827  s :     2.887827
      pz      :     1.062072  p :     3.133131
      px      :     1.033512
      py      :     1.037548
      dz2     :     0.014777  d :     0.093374
      dxz     :     0.021472
      dyz     :     0.018150
      dx2y2   :     0.018452
      dxy     :     0.020523

  1 C s       :     2.905732  s :     2.905732
      pz      :     1.086082  p :     3.214673
      px      :     1.081657
      py      :     1.046934
      dz2     :     0.009583  d :     0.074641
      dxz     :     0.015932
      dyz     :     0.018108
      dx2y2   :     0.015859
      dxy     :     0.015159

  2 C s       :     2.877491  s :     2.877491
      pz      :     1.045514  p :     3.077507
      px      :     1.002565
      py      :     1.029429
      dz2     :     0.016824  d :     0.107569
      dxz     :     0.023896
      dyz     :     0.020133
      dx2y2   :     0.026076
      dxy     :     0.020641

  3 H s       :     0.783397  s :     0.783397
      pz      :     0.014646  p :     0.081835
      px      :     0.040042
      py      :     0.027147

  4 H s       :     0.786669  s :     0.786669
      pz      :     0.027043  p :     0.082055
      px      :     0.028232
      py      :     0.026780

  5 C s       :     2.870493  s :     2.870493
      pz      :     0.967097  p :     3.015706
      px      :     1.064679
      py      :     0.983930
      dz2     :     0.036048  d :     0.140279
      dxz     :     0.030475
      dyz     :     0.025289
      dx2y2   :     0.036182
      dxy     :     0.012285

  6 H s       :     0.678016  s :     0.678016
      pz      :     0.020022  p :     0.120413
      px      :     0.027054
      py      :     0.073337

  7 C s       :     2.905915  s :     2.905915
      pz      :     1.087765  p :     3.195212
      px      :     1.076631
      py      :     1.030816
      dz2     :     0.009809  d :     0.075107
      dxz     :     0.018999
      dyz     :     0.014617
      dx2y2   :     0.016778
      dxy     :     0.014904

  8 C s       :     2.850986  s :     2.850986
      pz      :     0.907115  p :     2.605295
      px      :     0.668815
      py      :     1.029365
      dz2     :     0.114090  d :     0.316223
      dxz     :     0.060278
      dyz     :     0.082879
      dx2y2   :     0.034874
      dxy     :     0.024103

  9 H s       :     0.882567  s :     0.882567
      pz      :     0.021990  p :     0.041465
      px      :     0.008797
      py      :     0.010679

 10 N s       :     3.184273  s :     3.184273
      pz      :     1.137241  p :     4.027153
      px      :     1.174986
      py      :     1.714927
      dz2     :     0.013339  d :     0.061236
      dxz     :     0.019495
      dyz     :     0.014164
      dx2y2   :     0.004513
      dxy     :     0.009725

 11 O s       :     3.457195  s :     3.457195
      pz      :     1.552862  p :     4.702880
      px      :     1.781947
      py      :     1.368070
      dz2     :     0.018906  d :     0.047932
      dxz     :     0.007360
      dyz     :     0.010690
      dx2y2   :     0.009901
      dxy     :     0.001076

 12 H s       :     0.892097  s :     0.892097
      pz      :     0.012924  p :     0.041281
      px      :     0.015212
      py      :     0.013145

 13 O s       :     3.547833  s :     3.547833
      pz      :     1.570477  p :     4.711838
      px      :     1.460381
      py      :     1.680980
      dz2     :     0.014469  d :     0.056999
      dxz     :     0.009830
      dyz     :     0.021232
      dx2y2   :     0.005626
      dxy     :     0.005842

 14 H s       :     0.891008  s :     0.891008
      pz      :     0.021691  p :     0.040290
      px      :     0.007407
      py      :     0.011193

 15 H s       :     0.898711  s :     0.898711
      pz      :     0.009448  p :     0.039674
      px      :     0.018607
      py      :     0.011619

 16 H s       :     0.900538  s :     0.900538
      pz      :     0.015572  p :     0.039511
      px      :     0.017360
      py      :     0.006578

 17 H s       :     0.874662  s :     0.874662
      pz      :     0.012828  p :     0.039427
      px      :     0.018993
      py      :     0.007605

 18 H s       :     0.896974  s :     0.896974
      pz      :     0.021489  p :     0.040016
      px      :     0.007658
      py      :     0.010870

 19 H s       :     0.896786  s :     0.896786
      pz      :     0.010409  p :     0.039105
      px      :     0.016537
      py      :     0.012159

 20 H s       :     0.896198  s :     0.896198
      pz      :     0.021226  p :     0.039781
      px      :     0.007467
      py      :     0.011089

 21 H s       :     0.893338  s :     0.893338
      pz      :     0.011787  p :     0.039682
      px      :     0.021241
      py      :     0.006654



                      *****************************
                      * MAYER POPULATION ANALYSIS *
                      *****************************

  NA   - Mulliken gross atomic population
  ZA   - Total nuclear charge
  QA   - Mulliken gross atomic charge
  VA   - Mayer's total valence
  BVA  - Mayer's bonded valence
  FA   - Mayer's free valence

  ATOM       NA         ZA         QA         VA         BVA        FA
  0 C      6.2162     6.0000    -0.2162     3.7968     3.7968    -0.0000
  1 C      6.3653     6.0000    -0.3653     3.8426     3.8426    -0.0000
  2 C      6.1374     6.0000    -0.1374     3.7636     3.7636     0.0000
  3 H      0.7178     1.0000     0.2822     0.9033     0.9033    -0.0000
  4 H      0.7201     1.0000     0.2799     0.9032     0.9032     0.0000
  5 C      6.0382     6.0000    -0.0382     3.7360     3.7360     0.0000
  6 H      0.6270     1.0000     0.3730     0.8715     0.8715     0.0000
  7 C      6.3256     6.0000    -0.3256     3.8381     3.8381     0.0000
  8 C      5.1984     6.0000     0.8016     3.6792     3.6792     0.0000
  9 H      0.8552     1.0000     0.1448     0.9524     0.9524     0.0000
 10 N      7.6772     7.0000    -0.6772     2.7731     2.7731    -0.0000
 11 O      8.6363     8.0000    -0.6363     1.8193     1.8193    -0.0000
 12 H      0.8768     1.0000     0.1232     0.9599     0.9599     0.0000
 13 O      8.5977     8.0000    -0.5977     1.8812     1.8812     0.0000
 14 H      0.8579     1.0000     0.1421     0.9440     0.9440     0.0000
 15 H      0.8908     1.0000     0.1092     0.9550     0.9550     0.0000
 16 H      0.8941     1.0000     0.1059     0.9550     0.9550     0.0000
 17 H      0.8417     1.0000     0.1583     0.9408     0.9408    -0.0000
 18 H      0.8790     1.0000     0.1210     0.9479     0.9479     0.0000
 19 H      0.8821     1.0000     0.1179     0.9496     0.9496    -0.0000
 20 H      0.8836     1.0000     0.1164     0.9521     0.9521     0.0000
 21 H      0.8814     1.0000     0.1186     0.9527     0.9527     0.0000

  Mayer bond orders larger than 0.100000
B(  0-C ,  1-C ) :   0.9670 B(  0-C ,  2-C ) :   0.9700 B(  0-C , 18-H ) :   0.9688 
B(  0-C , 19-H ) :   0.9764 B(  1-C , 12-H ) :   0.9648 B(  1-C , 20-H ) :   0.9733 
B(  1-C , 21-H ) :   0.9776 B(  2-C ,  5-C ) :   0.9472 B(  2-C ,  7-C ) :   0.9813 
B(  2-C , 14-H ) :   0.9648 B(  3-H , 10-N ) :   0.9051 B(  4-H , 10-N ) :   0.9006 
B(  5-C ,  8-C ) :   0.9283 B(  5-C , 10-N ) :   0.9862 B(  5-C , 17-H ) :   0.9553 
B(  6-H , 11-O ) :   0.8395 B(  7-C ,  9-H ) :   0.9640 B(  7-C , 15-H ) :   0.9771 
B(  7-C , 16-H ) :   0.9776 B(  8-C , 11-O ) :   0.9660 B(  8-C , 13-O ) :   1.8030 


-------
TIMINGS
-------

Total SCF time: 0 days 0 hours 0 min 25 sec 

Total time                  ....      25.401 sec
Sum of individual times     ....      24.196 sec  ( 95.3%)

SCF preparation             ....       0.018 sec  (  0.1%)
Fock matrix formation       ....      24.089 sec  ( 94.8%)
  Startup                   ....       0.001 sec  (  0.0% of F)
  Coulomb+Exchange Fock     ....      25.278 sec  (104.9% of F)
Diagonalization             ....       0.000 sec  (  0.0%)
Density matrix formation    ....       0.006 sec  (  0.0%)
Total Energy calculation    ....       0.001 sec  (  0.0%)
Population analysis         ....       0.003 sec  (  0.0%)
Orbital Transformation      ....       0.032 sec  (  0.1%)
Orbital Orthonormalization  ....       0.000 sec  (  0.0%)
DIIS solution               ....       0.031 sec  (  0.1%)
SOSCF solution              ....       0.015 sec  (  0.1%)
Finished LeanSCF after  25.4 sec

Maximum memory used throughout the entire LEANSCF-calculation: 15.5 MB

------------------------------------------------------------------------------
                                ORCA  MP2 
------------------------------------------------------------------------------

Freezing NCore=18 chemical core electrons
MP2 will be done in the AO integral direct mode
The Q1-step will be done using symmetric double matrices
Dimension of the basis                    ...  191
Memory devoted for MP2                    ... 4096 MB   
Memory needed for all in one shot         ...  722 MB
Number of MOs that can be treated together...  152      
MP2 density construction                  ... relaxed
The MP2 gradient is requested => amplitudes will be stored on disk
Total number of MOs              ...   27
Number of MOs treated per batch  ...   27 
Number of batches necessary      ...    1 
OPERATORS   0/  0 PASS   0
-----------------------------------------------
 MP2 CORRELATION ENERGY   :     -1.371232628 Eh
-----------------------------------------------


---------------------
MP2 DENSITY FORMATION
---------------------

Completing the external part of the density      ... done
Storing the unrelaxed density                    ... done

Calculating G(D)                                 ... done
Completing the Lagrangian                        ... done
Solving the Z-vector equations                   ... 
-------------------
SHARK CP-SCF DRIVER
-------------------

Dimension of the orbital basis          ...    191
Dimension of the CPSCF-problem          ...   5580
Number of operators                     ...      1
Max. number of iterations               ...    128
Convergence Tolerance                   ... 1.0e-04
Number of perturbations                 ...      1
Perturbation type                       ... REAL

----------------------------
POPLE LINEAR EQUATION SOLVER
----------------------------

  ITERATION   0:   ||err||_max =   1.2710e-01 (   2.8 sec)
  ITERATION   1:   ||err||_max =   3.3044e-02 (   2.8 sec)
  ITERATION   2:   ||err||_max =   1.4076e-02 (   2.9 sec)
  ITERATION   3:   ||err||_max =   3.5448e-03 (   2.8 sec)
  ITERATION   4:   ||err||_max =   1.3022e-03 (   2.9 sec)
  ITERATION   5:   ||err||_max =   3.2400e-04 (   2.8 sec)
  ITERATION   6:   ||err||_max =   1.0442e-04 (   2.9 sec)
  ITERATION   7:   ||err||_max =   3.8920e-05 (   2.9 sec)
                                                 ... done
Finalizing the relaxed density                   ... done
Transforming P to the AO basis                   ... done
Storing the relaxed density                      ... done

------------------------------------
ENERGY WEIGHTED DENSITY FINALIZATION
------------------------------------

Gathering the parts of the W-matrix              ...                                                      done
Forming the Z-density                            ... done
Transforming Z to the AO basis                   ... done
Calculating G(Z)                                 ... done
Finalizing the W-matrix                          ...                                                      done
Transforming W to the AO basis and storing       ... done

                *********************************************
                * UNRELAXED MP2 DENSITY POPULATION ANALYSIS *
                *********************************************

------------------------------------------------------------------------------
                           ORCA POPULATION ANALYSIS
------------------------------------------------------------------------------
Input electron density              ... 2.pmp2ur
BaseName (.gbw .S,...)              ... 2

                    ********************************
                    * MULLIKEN POPULATION ANALYSIS *
                    ********************************

-----------------------
MULLIKEN ATOMIC CHARGES
-----------------------
   0 C :   -0.218223
   1 C :   -0.367005
   2 C :   -0.139658
   3 H :    0.280843
   4 H :    0.278302
   5 C :   -0.043223
   6 H :    0.369752
   7 C :   -0.327515
   8 C :    0.767791
   9 H :    0.145237
  10 N :   -0.669099
  11 O :   -0.622435
  12 H :    0.123801
  13 O :   -0.574400
  14 H :    0.142645
  15 H :    0.110184
  16 H :    0.106906
  17 H :    0.158920
  18 H :    0.121714
  19 H :    0.118757
  20 H :    0.117197
  21 H :    0.119509
Sum of atomic charges:    0.0000000

--------------------------------
MULLIKEN REDUCED ORBITAL CHARGES
--------------------------------
  0 C s       :     3.233103  s :     3.233103
      pz      :     1.014681  p :     2.919737
      px      :     0.955175
      py      :     0.949882
      dz2     :     0.011295  d :     0.065383
      dxz     :     0.014318
      dyz     :     0.013398
      dx2y2   :     0.012442
      dxy     :     0.013930
  1 C s       :     3.257833  s :     3.257833
      pz      :     1.048934  p :     3.051310
      px      :     1.048579
      py      :     0.953798
      dz2     :     0.008791  d :     0.057862
      dxz     :     0.012840
      dyz     :     0.013226
      dx2y2   :     0.011655
      dxy     :     0.011350
  2 C s       :     3.226645  s :     3.226645
      pz      :     0.989080  p :     2.841662
      px      :     0.891422
      py      :     0.961160
      dz2     :     0.012370  d :     0.071351
      dxz     :     0.015135
      dyz     :     0.014309
      dx2y2   :     0.015934
      dxy     :     0.013603
  3 H s       :     0.691059  s :     0.691059
      pz      :     0.005503  p :     0.028098
      px      :     0.013805
      py      :     0.008790
  4 H s       :     0.693496  s :     0.693496
      pz      :     0.009523  p :     0.028202
      px      :     0.009936
      py      :     0.008742
  5 C s       :     3.203104  s :     3.203104
      pz      :     0.860828  p :     2.754403
      px      :     1.045096
      py      :     0.848479
      dz2     :     0.020454  d :     0.085716
      dxz     :     0.019463
      dyz     :     0.015364
      dx2y2   :     0.020785
      dxy     :     0.009649
  6 H s       :     0.587552  s :     0.587552
      pz      :     0.006759  p :     0.042696
      px      :     0.009394
      py      :     0.026543
  7 C s       :     3.244165  s :     3.244165
      pz      :     1.054778  p :     3.025562
      px      :     1.039095
      py      :     0.931689
      dz2     :     0.009013  d :     0.057788
      dxz     :     0.014616
      dyz     :     0.011177
      dx2y2   :     0.011840
      dxy     :     0.011142
  8 C s       :     2.948623  s :     2.948623
      pz      :     0.628471  p :     2.127460
      px      :     0.629410
      py      :     0.869578
      dz2     :     0.050917  d :     0.156126
      dxz     :     0.030788
      dyz     :     0.040075
      dx2y2   :     0.019131
      dxy     :     0.015214
  9 H s       :     0.839128  s :     0.839128
      pz      :     0.008045  p :     0.015635
      px      :     0.003537
      py      :     0.004052
 10 N s       :     3.596694  s :     3.596694
      pz      :     1.088872  p :     4.015744
      px      :     1.182152
      py      :     1.744720
      dz2     :     0.010214  d :     0.056661
      dxz     :     0.013387
      dyz     :     0.013483
      dx2y2   :     0.006914
      dxy     :     0.012663
 11 O s       :     3.834533  s :     3.834533
      pz      :     1.536720  p :     4.739423
      px      :     1.815746
      py      :     1.386957
      dz2     :     0.015306  d :     0.048479
      dxz     :     0.009929
      dyz     :     0.008419
      dx2y2   :     0.009782
      dxy     :     0.005043
 12 H s       :     0.860287  s :     0.860287
      pz      :     0.005047  p :     0.015913
      px      :     0.005685
      py      :     0.005180
 13 O s       :     3.875917  s :     3.875917
      pz      :     1.517913  p :     4.644150
      px      :     1.469974
      py      :     1.656263
      dz2     :     0.012301  d :     0.054333
      dxz     :     0.012251
      dyz     :     0.013362
      dx2y2   :     0.007053
      dxy     :     0.009366
 14 H s       :     0.842114  s :     0.842114
      pz      :     0.007927  p :     0.015241
      px      :     0.002938
      py      :     0.004376
 15 H s       :     0.874380  s :     0.874380
      pz      :     0.003795  p :     0.015436
      px      :     0.007030
      py      :     0.004612
 16 H s       :     0.877663  s :     0.877663
      pz      :     0.005968  p :     0.015431
      px      :     0.006586
      py      :     0.002877
 17 H s       :     0.826106  s :     0.826106
      pz      :     0.004808  p :     0.014974
      px      :     0.006945
      py      :     0.003221
 18 H s       :     0.862910  s :     0.862910
      pz      :     0.007906  p :     0.015375
      px      :     0.003176
      py      :     0.004294
 19 H s       :     0.865947  s :     0.865947
      pz      :     0.004171  p :     0.015296
      px      :     0.006338
      py      :     0.004787
 20 H s       :     0.867441  s :     0.867441
      pz      :     0.007899  p :     0.015362
      px      :     0.003046
      py      :     0.004417
 21 H s       :     0.865078  s :     0.865078
      pz      :     0.004603  p :     0.015413
      px      :     0.007920
      py      :     0.002890


                     *******************************
                     * LOEWDIN POPULATION ANALYSIS *
                     *******************************

----------------------
LOEWDIN ATOMIC CHARGES
----------------------
   0 C :   -0.114783
   1 C :   -0.195074
   2 C :   -0.064040
   3 H :    0.134006
   4 H :    0.130371
   5 C :   -0.029667
   6 H :    0.199165
   7 C :   -0.176292
   8 C :    0.203162
   9 H :    0.075961
  10 N :   -0.267799
  11 O :   -0.199257
  12 H :    0.066636
  13 O :   -0.298041
  14 H :    0.068866
  15 H :    0.061829
  16 H :    0.060201
  17 H :    0.085905
  18 H :    0.063201
  19 H :    0.064325
  20 H :    0.064170
  21 H :    0.067154

-------------------------------
LOEWDIN REDUCED ORBITAL CHARGES
-------------------------------
  0 C s       :     2.887482  s :     2.887482
      pz      :     1.056171  p :     3.115288
      px      :     1.027447
      py      :     1.031670
      dz2     :     0.018512  d :     0.112013
      dxz     :     0.025125
      dyz     :     0.021894
      dx2y2   :     0.022129
      dxy     :     0.024353
  1 C s       :     2.904971  s :     2.904971
      pz      :     1.080668  p :     3.197590
      px      :     1.076054
      py      :     1.040869
      dz2     :     0.013060  d :     0.092514
      dxz     :     0.019496
      dyz     :     0.021734
      dx2y2   :     0.019469
      dxy     :     0.018755
  2 C s       :     2.877628  s :     2.877628
      pz      :     1.039480  p :     3.059491
      px      :     0.996765
      py      :     1.023246
      dz2     :     0.020707  d :     0.126921
      dxz     :     0.027673
      dyz     :     0.024026
      dx2y2   :     0.029989
      dxy     :     0.024526
  3 H s       :     0.780458  s :     0.780458
      pz      :     0.015774  p :     0.085536
      px      :     0.041562
      py      :     0.028200
  4 H s       :     0.783789  s :     0.783789
      pz      :     0.028429  p :     0.085840
      px      :     0.029570
      py      :     0.027841
  5 C s       :     2.870764  s :     2.870764
      pz      :     0.963164  p :     3.000339
      px      :     1.057541
      py      :     0.979633
      dz2     :     0.039321  d :     0.158565
      dxz     :     0.034088
      dyz     :     0.028979
      dx2y2   :     0.039734
      dxy     :     0.016442
  6 H s       :     0.677950  s :     0.677950
      pz      :     0.020788  p :     0.122885
      px      :     0.027682
      py      :     0.074416
  7 C s       :     2.905144  s :     2.905144
      pz      :     1.082178  p :     3.178040
      px      :     1.071119
      py      :     1.024744
      dz2     :     0.013343  d :     0.093107
      dxz     :     0.022562
      dyz     :     0.018316
      dx2y2   :     0.020309
      dxy     :     0.018577
  8 C s       :     2.851685  s :     2.851685
      pz      :     0.908790  p :     2.617358
      px      :     0.683240
      py      :     1.025328
      dz2     :     0.115698  d :     0.327795
      dxz     :     0.061825
      dyz     :     0.085909
      dx2y2   :     0.037619
      dxy     :     0.026744
  9 H s       :     0.878032  s :     0.878032
      pz      :     0.023752  p :     0.046008
      px      :     0.010110
      py      :     0.012146
 10 N s       :     3.182401  s :     3.182401
      pz      :     1.130184  p :     4.000008
      px      :     1.168641
      py      :     1.701183
      dz2     :     0.018083  d :     0.085391
      dxz     :     0.024147
      dyz     :     0.019203
      dx2y2   :     0.009387
      dxy     :     0.014571
 11 O s       :     3.455277  s :     3.455277
      pz      :     1.542910  p :     4.671436
      px      :     1.768703
      py      :     1.359824
      dz2     :     0.024113  d :     0.072544
      dxz     :     0.012333
      dyz     :     0.015415
      dx2y2   :     0.015016
      dxy     :     0.005667
 12 H s       :     0.887409  s :     0.887409
      pz      :     0.014439  p :     0.045955
      px      :     0.016827
      py      :     0.014689
 13 O s       :     3.544850  s :     3.544850
      pz      :     1.559082  p :     4.671900
      px      :     1.444861
      py      :     1.667957
      dz2     :     0.019457  d :     0.081291
      dxz     :     0.014522
      dyz     :     0.026612
      dx2y2   :     0.010250
      dxy     :     0.010451
 14 H s       :     0.885829  s :     0.885829
      pz      :     0.023673  p :     0.045305
      px      :     0.008844
      py      :     0.012788
 15 H s       :     0.893848  s :     0.893848
      pz      :     0.010814  p :     0.044322
      px      :     0.020381
      py      :     0.013127
 16 H s       :     0.895618  s :     0.895618
      pz      :     0.017226  p :     0.044180
      px      :     0.019103
      py      :     0.007851
 17 H s       :     0.869775  s :     0.869775
      pz      :     0.014474  p :     0.044321
      px      :     0.020820
      py      :     0.009027
 18 H s       :     0.891914  s :     0.891914
      pz      :     0.023467  p :     0.044885
      px      :     0.009026
      py      :     0.012393
 19 H s       :     0.891720  s :     0.891720
      pz      :     0.011872  p :     0.043955
      px      :     0.018324
      py      :     0.013759
 20 H s       :     0.891444  s :     0.891444
      pz      :     0.023084  p :     0.044386
      px      :     0.008746
      py      :     0.012556
 21 H s       :     0.888602  s :     0.888602
      pz      :     0.013232  p :     0.044244
      px      :     0.023127
      py      :     0.007885


                      *****************************
                      * MAYER POPULATION ANALYSIS *
                      *****************************

  NA   - Mulliken gross atomic population
  ZA   - Total nuclear charge
  QA   - Mulliken gross atomic charge
  VA   - Mayer's total valence
  BVA  - Mayer's bonded valence
  FA   - Mayer's free valence

  ATOM       NA         ZA         QA         VA         BVA        FA
  0 C      6.2182     6.0000    -0.2182     3.8801     3.6120     0.2681
  1 C      6.3670     6.0000    -0.3670     3.9307     3.6791     0.2517
  2 C      6.1397     6.0000    -0.1397     3.8438     3.5564     0.2874
  3 H      0.7192     1.0000     0.2808     0.9104     0.8647     0.0457
  4 H      0.7217     1.0000     0.2783     0.9106     0.8644     0.0462
  5 C      6.0432     6.0000    -0.0432     3.8120     3.5297     0.2824
  6 H      0.6302     1.0000     0.3698     0.8784     0.8341     0.0443
  7 C      6.3275     6.0000    -0.3275     3.9248     3.6729     0.2519
  8 C      5.2322     6.0000     0.7678     3.7429     3.4518     0.2911
  9 H      0.8548     1.0000     0.1452     0.9612     0.9150     0.0462
 10 N      7.6691     7.0000    -0.6691     2.9670     2.6392     0.3278
 11 O      8.6224     8.0000    -0.6224     2.0785     1.7219     0.3566
 12 H      0.8762     1.0000     0.1238     0.9690     0.9214     0.0476
 13 O      8.5744     8.0000    -0.5744     2.1473     1.7490     0.3982
 14 H      0.8574     1.0000     0.1426     0.9534     0.9032     0.0502
 15 H      0.8898     1.0000     0.1102     0.9644     0.9169     0.0475
 16 H      0.8931     1.0000     0.1069     0.9645     0.9169     0.0476
 17 H      0.8411     1.0000     0.1589     0.9494     0.8996     0.0498
 18 H      0.8783     1.0000     0.1217     0.9575     0.9084     0.0491
 19 H      0.8812     1.0000     0.1188     0.9591     0.9098     0.0493
 20 H      0.8828     1.0000     0.1172     0.9615     0.9145     0.0470
 21 H      0.8805     1.0000     0.1195     0.9618     0.9149     0.0469

  Mayer bond orders larger than 0.100000
B(  0-C ,  1-C ) :   0.9152 B(  0-C ,  2-C ) :   0.9153 B(  0-C , 18-H ) :   0.9304 
B(  0-C , 19-H ) :   0.9378 B(  1-C , 12-H ) :   0.9279 B(  1-C , 20-H ) :   0.9365 
B(  1-C , 21-H ) :   0.9408 B(  2-C ,  5-C ) :   0.8922 B(  2-C ,  7-C ) :   0.9273 
B(  2-C , 14-H ) :   0.9255 B(  3-H , 10-N ) :   0.8681 B(  4-H , 10-N ) :   0.8633 
B(  5-C ,  8-C ) :   0.8772 B(  5-C , 10-N ) :   0.9294 B(  5-C , 17-H ) :   0.9170 
B(  6-H , 11-O ) :   0.8047 B(  7-C ,  9-H ) :   0.9276 B(  7-C , 15-H ) :   0.9401 
B(  7-C , 16-H ) :   0.9405 B(  8-C , 11-O ) :   0.9123 B(  8-C , 13-O ) :   1.6849 



                *******************************************
                * RELAXED MP2 DENSITY POPULATION ANALYSIS *
                *******************************************

------------------------------------------------------------------------------
                           ORCA POPULATION ANALYSIS
------------------------------------------------------------------------------
Input electron density              ... 2.pmp2re
BaseName (.gbw .S,...)              ... 2

                    ********************************
                    * MULLIKEN POPULATION ANALYSIS *
                    ********************************

-----------------------
MULLIKEN ATOMIC CHARGES
-----------------------
   0 C :   -0.209459
[...]
   5 C :   -0.048609
   6 H :    0.188228
   7 C :   -0.190385
   8 C :    0.142532
   9 H :    0.078369
  10 N :   -0.256996
  11 O :   -0.176480
  12 H :    0.068401
  13 O :   -0.231923
  14 H :    0.070852
  15 H :    0.066493
  16 H :    0.064883
  17 H :    0.087799
  18 H :    0.068209
  19 H :    0.067910
  20 H :    0.067732
  21 H :    0.071648

-------------------------------
LOEWDIN REDUCED ORBITAL CHARGES
-------------------------------
  0 C s       :     2.889289  s :     2.889289
      pz      :     1.063193  p :     3.130096
      px      :     1.031758
      py      :     1.035145
      dz2     :     0.016714  d :     0.105347
      dxz     :     0.023111
      dyz     :     0.022066
      dx2y2   :     0.020278
      dxy     :     0.023177
  1 C s       :     2.906701  s :     2.906701
      pz      :     1.086921  p :     3.213696
      px      :     1.081925
      py      :     1.044850
      dz2     :     0.011263  d :     0.086443
      dxz     :     0.017758
      dyz     :     0.022181
      dx2y2   :     0.018429
      dxy     :     0.016812
  2 C s       :     2.878949  s :     2.878949
      pz      :     1.042608  p :     3.068120
      px      :     1.001902
      py      :     1.023610
      dz2     :     0.019997  d :     0.120685
      dxz     :     0.025482
      dyz     :     0.023366
      dx2y2   :     0.028107
      dxy     :     0.023733
  3 H s       :     0.784379  s :     0.784379
      pz      :     0.015516  p :     0.084003
      px      :     0.041198
      py      :     0.027289
  4 H s       :     0.786514  s :     0.786514
      pz      :     0.027690  p :     0.084441
      px      :     0.026776
      py      :     0.029975
  5 C s       :     2.875747  s :     2.875747
      pz      :     0.965233  p :     3.022190
      px      :     1.057939
      py      :     0.999018
      dz2     :     0.036190  d :     0.150672
      dxz     :     0.032253
      dyz     :     0.028925
      dx2y2   :     0.036858
      dxy     :     0.016447
  6 H s       :     0.691269  s :     0.691269
      pz      :     0.021403  p :     0.120502
      px      :     0.027686
      py      :     0.071413
  7 C s       :     2.908542  s :     2.908542
      pz      :     1.087724  p :     3.194846
      px      :     1.077421
      py      :     1.029702
      dz2     :     0.011780  d :     0.086998
      dxz     :     0.021032
      dyz     :     0.018207
      dx2y2   :     0.018650
      dxy     :     0.017329
  8 C s       :     2.863966  s :     2.863966
      pz      :     0.909254  p :     2.688600
      px      :     0.764322
      py      :     1.015025
      dz2     :     0.113628  d :     0.304901
      dxz     :     0.054034
      dyz     :     0.081131
      dx2y2   :     0.033496
      dxy     :     0.022612
  9 H s       :     0.876260  s :     0.876260
      pz      :     0.023031  p :     0.045371
      px      :     0.009867
      py      :     0.012472
 10 N s       :     3.196226  s :     3.196226
      pz      :     1.131385  p :     3.977349
      px      :     1.172994
      py      :     1.672970
      dz2     :     0.017740  d :     0.083422
      dxz     :     0.021130
      dyz     :     0.020113
      dx2y2   :     0.009814
      dxy     :     0.014625
 11 O s       :     3.481312  s :     3.481312
      pz      :     1.525291  p :     4.623009
      px      :     1.746404
      py      :     1.351315
      dz2     :     0.024619  d :     0.072159
      dxz     :     0.012417
      dyz     :     0.015053
      dx2y2   :     0.014726
      dxy     :     0.005344
 12 H s       :     0.886319  s :     0.886319
      pz      :     0.015025  p :     0.045280
      px      :     0.016033
      py      :     0.014222
 13 O s       :     3.560660  s :     3.560660
      pz      :     1.558608  p :     4.592469
      px      :     1.393664
      py      :     1.640197
      dz2     :     0.018821  d :     0.078793
      dxz     :     0.013776
      dyz     :     0.025536
      dx2y2   :     0.010501
      dxy     :     0.010159
 14 H s       :     0.883997  s :     0.883997
      pz      :     0.023091  p :     0.045151
      px      :     0.009248
      py      :     0.012812
 15 H s       :     0.889647  s :     0.889647
      pz      :     0.011135  p :     0.043860
      px      :     0.019671
      py      :     0.013054
 16 H s       :     0.891460  s :     0.891460
      pz      :     0.016576  p :     0.043658
      px      :     0.019097
      py      :     0.007985
 17 H s       :     0.867535  s :     0.867535
      pz      :     0.014405  p :     0.044666
      px      :     0.020716
      py      :     0.009546
 18 H s       :     0.887163  s :     0.887163
      pz      :     0.022556  p :     0.044628
      px      :     0.009216
      py      :     0.012856
 19 H s       :     0.888241  s :     0.888241
      pz      :     0.012099  p :     0.043849
      px      :     0.018025
      py      :     0.013724
 20 H s       :     0.888345  s :     0.888345
      pz      :     0.021968  p :     0.043923
      px      :     0.008638
      py      :     0.013317
 21 H s       :     0.884477  s :     0.884477
      pz      :     0.012621  p :     0.043875
      px      :     0.023175
      py      :     0.008079


                      *****************************
                      * MAYER POPULATION ANALYSIS *
                      *****************************

  NA   - Mulliken gross atomic population
  ZA   - Total nuclear charge
  QA   - Mulliken gross atomic charge
  VA   - Mayer's total valence
  BVA  - Mayer's bonded valence
  FA   - Mayer's free valence

  ATOM       NA         ZA         QA         VA         BVA        FA
  0 C      6.2089     6.0000    -0.2089     3.9353     3.6694     0.2659
  1 C      6.3580     6.0000    -0.3580     3.9591     3.7089     0.2502
  2 C      6.0945     6.0000    -0.0945     3.9174     3.6348     0.2826
  3 H      0.7383     1.0000     0.2617     0.9180     0.8719     0.0462
  4 H      0.7378     1.0000     0.2622     0.9220     0.8757     0.0463
  5 C      6.0655     6.0000    -0.0655     3.8868     3.6081     0.2787
  6 H      0.6570     1.0000     0.3430     0.9017     0.8578     0.0439
  7 C      6.3305     6.0000    -0.3305     3.9503     3.6995     0.2508
  8 C      5.4285     6.0000     0.5715     3.9479     3.6686     0.2793
  9 H      0.8615     1.0000     0.1385     0.9665     0.9204     0.0461
 10 N      7.6029     7.0000    -0.6029     3.0408     2.7166     0.3242
 11 O      8.5233     8.0000    -0.5233     2.1987     1.8460     0.3527
 12 H      0.8823     1.0000     0.1177     0.9722     0.9246     0.0476
 13 O      8.4467     8.0000    -0.4467     2.3100     1.9204     0.3896
 14 H      0.8743     1.0000     0.1257     0.9595     0.9091     0.0503
 15 H      0.8937     1.0000     0.1063     0.9659     0.9183     0.0476
 16 H      0.8970     1.0000     0.1030     0.9662     0.9185     0.0477
 17 H      0.8544     1.0000     0.1456     0.9538     0.9041     0.0497
 18 H      0.8820     1.0000     0.1180     0.9618     0.9128     0.0490
 19 H      0.8900     1.0000     0.1100     0.9611     0.9115     0.0496
 20 H      0.8877     1.0000     0.1123     0.9651     0.9180     0.0471
 21 H      0.8852     1.0000     0.1148     0.9630     0.9160     0.0470

  Mayer bond orders larger than 0.100000
B(  0-C ,  1-C ) :   0.9350 B(  0-C ,  2-C ) :   0.9355 B(  0-C , 18-H ) :   0.9209 
B(  0-C , 19-H ) :   0.9276 B(  1-C , 12-H ) :   0.9258 B(  1-C , 20-H ) :   0.9332 
B(  1-C , 21-H ) :   0.9343 B(  2-C ,  5-C ) :   0.9015 B(  2-C ,  7-C ) :   0.9385 
B(  2-C , 14-H ) :   0.9139 B(  3-H , 10-N ) :   0.8705 B(  4-H , 10-N ) :   0.8643 
B(  5-C ,  8-C ) :   0.8741 B(  5-C , 10-N ) :   0.9661 B(  5-C , 17-H ) :   0.9037 
B(  6-H , 11-O ) :   0.8118 B(  7-C ,  9-H ) :   0.9241 B(  7-C , 15-H ) :   0.9329 
B(  7-C , 16-H ) :   0.9334 B(  8-C , 11-O ) :   0.9849 B(  8-C , 13-O ) :   1.7922 



----------------------------------
MP2 DERIVATIVE INTEGRAL GENERATION
----------------------------------

Input SCF Electron Density              ... 2.scfp
Input Correlated Electron Density       ... 2.pmp2re
Input Energy Weighted Density           ... 2.wmp2.tmp
Input Wavefunction Amplitudes           ... 2.mp2tsaa.tmp

Nuclear repulsion gradient              ... done (  0.0 sec)
HCore & Overlap gradient  (SHARK)       ... done (  0.1 sec)
Analytic two-electron gradient terms    ... 
  Batch handling in the gradient evaluation:
  General contraction                   ... not used
  Memory available                      ... 4081.5 MB
  Memory per occupied orbital in Q2     ...    7.5 MB
  Memory per occupied orbital in Q3     ...    0.0 MB
  Total memory requirement per |i>      ...    7.6 MB
  Number of orbitals treated per batch  ...     27
  Number of batches to be done          ...      1
done ( 22.3 sec)

---------------------------------------
MP2 TOTAL ENERGY:     -440.365180985 Eh
---------------------------------------

The final MP2 gradient
  0:  -0.00001646   0.00004275  -0.00002629
  1:  -0.00002014  -0.00001595   0.00002954
  2:  -0.00000293  -0.00002216   0.00001782
  3:   0.00000060   0.00000186   0.00001354
  4:  -0.00000758   0.00000661   0.00000829
  5:   0.00001433  -0.00003358   0.00002215
  6:   0.00000147   0.00000085  -0.00000848
  7:   0.00001113   0.00000972  -0.00001005
  8:  -0.00001259   0.00005265   0.00000608
  9:  -0.00000667   0.00000257   0.00000025
 10:   0.00001488  -0.00000214  -0.00003173
 11:  -0.00000599  -0.00001737   0.00002183
 12:  -0.00000505   0.00000881  -0.00001255
 13:   0.00000614  -0.00002716  -0.00001865
 14:  -0.00000140   0.00000402  -0.00000110
 15:  -0.00000154  -0.00000789   0.00000700
 16:  -0.00000148  -0.00000038   0.00000066
 17:   0.00000118   0.00002049  -0.00001433
 18:   0.00001384  -0.00001353   0.00000133
 19:   0.00000355  -0.00000625   0.00000634
 20:   0.00001009   0.00000267  -0.00000128
 21:   0.00000463  -0.00000658  -0.00001038

-----------------------------------
NORM OF THE MP2 GRADIENT:  0.000125
-----------------------------------

Maximum memory used throughout the entire MP2-calculation: 780.3 MB

-------------------------   --------------------
FINAL SINGLE POINT ENERGY      -440.365180985367
-------------------------   --------------------

                                *** OPTIMIZATION RUN DONE ***


------------------------------------------------------------------------------
                              ORCA PROPERTY CALCULATIONS
------------------------------------------------------------------------------

GBWName                                 ... 2.gbw
Number of atoms                         ...     22
Number of basis functions               ...    191
Max core memory                         ...   4096 MB

Electric properties:
Dipole moment                           ... YES
Quadrupole moment                       ...  NO
Static polarizability (Dipole/Dipole)   ...  NO
Static polarizability (Dipole/Quad.)    ...  NO
Static polarizability (Quad./Quad.)     ...  NO
Static polarizability (Velocity)        ...  NO
Static hyperpolarizability              ...  NO

Atomic electric properties:
Dipole moment                           ...  NO
Quadrupole moment                       ...  NO
Static polarizability                   ...  NO

Choice of electric origin               ... Center of mass
Position of electric origin             ...   -14.655200     7.616983    -0.348148

General magnetic properties:
Magnetizability                         ...  NO

EPR properties:
g-Tensor (aka g-matrix)                 ...  NO
Zero-Field splitting spin-orbit         ...  NO
Zero-field splitting spin-spin          ...  NO
Hyperfine couplings                     ...  NO (   0 nuclei)
Quadrupole couplings                    ...  NO (   0 nuclei)
Contact density                         ...  NO (   0 nuclei)

NMR properties:
Chemical shifts                         ...  NO (   0 nuclei)
Spin-rotation constants                 ...  NO (   0 nuclei)
Spin-spin couplings                     ...  NO (   0 nuclei,    0 pairs)

Choice of magnetic origin               ... GIAO
Position of magnetic origin             ...     0.000000     0.000000     0.000000

Properties with geometric perturbations:
SCF Hessian                             ...  NO
IR spectrum                             ...  NO
VCD spectrum                            ...  NO
X-ray spectroscopy properties:
SCF XES/XAS/RIXS spectra                ...  NO

SCF SOC stabilization energy            ...  NO
Diagonal Born-Oppenheimer correction    ...  NO

-------------
DIPOLE MOMENT
-------------

Method             : SCF
Type of density    : Electron Density
Multiplicity       :   1
Irrep              :   0
Energy             :  -438.9899504314204819 Eh
Basis              : AO
                                X                 Y                 Z
Electronic contribution:      5.973065911      -8.085830001       0.327572123
Nuclear contribution   :     -6.041112589       7.979375065       0.180649447
                        -----------------------------------------
Total Dipole Moment    :     -0.068046679      -0.106454936       0.508221570
                        -----------------------------------------
Magnitude (a.u.)       :      0.523690909
Magnitude (Debye)      :      1.331116505



--------------------
Rotational spectrum 
--------------------
 
Rotational constants in cm-1:             0.065357             0.042236             0.037518 
Rotational constants in MHz :          1959.366966          1266.201080          1124.765565 

Dipole components along the rotational axes: 
x,y,z [a.u.] :     0.029663    -0.056689    -0.519768 
x,y,z [Debye]:     0.075397    -0.144092    -1.321145 

 

-------------
DIPOLE MOMENT
-------------

Method             : MP2
Type of density    : Electron Density
Multiplicity       :   1
Level              : Unrelaxed density
Irrep              :   0
Energy             :     0.0000000000000000 Eh
Basis              : AO
                                X                 Y                 Z
Electronic contribution:      5.977578242      -8.109013717       0.302057958
Nuclear contribution   :     -6.041112589       7.979375065       0.180649447
                        -----------------------------------------
Total Dipole Moment    :     -0.063534348      -0.129638652       0.482707406
                        -----------------------------------------
Magnitude (a.u.)       :      0.503834529
Magnitude (Debye)      :      1.280645599



--------------------
Rotational spectrum 
--------------------
 
Rotational constants in cm-1:             0.065357             0.042236             0.037518 
Rotational constants in MHz :          1959.366966          1266.201080          1124.765565 

Dipole components along the rotational axes: 
x,y,z [a.u.] :     0.054787    -0.063700    -0.496780 
x,y,z [Debye]:     0.139257    -0.161913    -1.262713 

 

-------------
DIPOLE MOMENT
-------------

Method             : MP2
Type of density    : Electron Density
Multiplicity       :   1
Level              : Relaxed density
Irrep              :   0
Energy             :     0.0000000000000000 Eh
Basis              : AO
                                X                 Y                 Z
Electronic contribution:      6.007941343      -8.227842210       0.218025061
Nuclear contribution   :     -6.041112589       7.979375065       0.180649447
                        -----------------------------------------
Total Dipole Moment    :     -0.033171246      -0.248467145       0.398674508
                        -----------------------------------------
Magnitude (a.u.)       :      0.470932709
Magnitude (Debye)      :      1.197015819



--------------------
Rotational spectrum 
--------------------
 
Rotational constants in cm-1:             0.065357             0.042236             0.037518 
Rotational constants in MHz :          1959.366966          1266.201080          1124.765565 

Dipole components along the rotational axes: 
x,y,z [a.u.] :     0.182537    -0.088706    -0.424958 
x,y,z [Debye]:     0.463971    -0.225472    -1.080157 

 

Dipole moment calculation done in   0.0 sec 

Maximum memory used throughout the entire PROP-calculation: 10.7 MB

--------------------------------
SUGGESTED CITATIONS FOR THIS RUN
--------------------------------

Below you find a list of papers that are relevant to this ORCA run
We neither can nor want to force you to cite these papers, but we appreciate if you do
You receive ORCA, which is the product of decades of hard work by many enthusiastic individuals, for free
The only thing we kindly ask in return is that you cite our papers,
We deeply appreciate it, if you show your appreciation for ORCA by not just citing the generic ORCA reference.

Please note that relegating all ORCA citations to the supporting information does *not* help us.
SI sections are not indexed - citations you put there will not count into any citation statistics
But we need these citations in order to attract the funding resources that allow us to do what we are doing

Therefore, if you are a happy ORCA user, please consider citing a few of the papers listed below in the main body of your paper

In addition to the list printed below, the program has created the file 2.bibtex that contains the list in bibtex format
You can import this file easily into all common literature databanks and citation aid programs


List of essential papers. We consider these as the minimum necessary citations

  1. Neese, F.
     Software update: the ORCA program system, version 6.0
     WIRES Comput. Molec. Sci. 2025 15(1), e70019
     doi.org/10.1002/wcms.7019

List of papers to cite with high priority. The work reported in these papers was absolutely
necessary for this run to complete.
Our perspective: the developers of density functionals and basis sets usually get cited in chemistry papers
Good! But without the algorithms to do something with them, the functionals or basis sets would not do anything.
Hence, in our opinion, the algorithm design and method developments papers are equally worthy of getting cited

  1. Neese, F.
     The SHARK Integral Generation and Digestion System
     J. Comp. Chem. 2022 44(3), 381
     doi.org/10.1002/jcc.26942

List of suggested additional citations. These are papers that are important in the 'surrounding' of 
of this run, or papers that preceded the highly important papers. If you like your results we are grateful for a citation.

  1. Neese, F.
     The ORCA program system
     WIRES Comput. Molec. Sci. 2012 2(1), 73-78
     doi.org/10.1002/wcms.81
  2. Neese, F.
     Software update: the ORCA program system, version 4.0
     WIRES Comput. Molec. Sci. 2018 8(1), 1-6
     doi.org/10.1002/wcms.1327
  3. Neese, F.; Wennmohs, F.; Becker, U.; Riplinger, C.
     The ORCA quantum chemistry program package
     J. Chem. Phys. 2020 152(22), 224108
     doi.org/10.1063/5.0004608
  4. Neese, F.
     Software update: The ORCA program system—Version 5.0
     WIRES Comput. Molec. Sci. 2022 12(1), e1606
     doi.org/10.1002/wcms.1606

List of optional additional citations

  1. Neese, F.
     Approximate second-order SCF convergence for spin unrestricted wavefunctions
     Chem. Phys. Lett. 2000 325(1-3), 93-98
     doi.org/10.1016/s0009-2614(00)00662-x

Timings for individual modules:

Sum of individual times          ...      933.691 sec (=  15.562 min)
Startup calculation              ...        5.054 sec (=   0.084 min)   0.5 %
SCF iterations                   ...      174.772 sec (=   2.913 min)  18.7 %
Property calculations            ...        0.051 sec (=   0.001 min)   0.0 %
MP2 module                       ...      753.796 sec (=  12.563 min)  80.7 %
Geometry relaxation              ...        0.018 sec (=   0.000 min)   0.0 %
                             ****ORCA TERMINATED NORMALLY****
TOTAL RUN TIME: 0 days 0 hours 15 minutes 33 seconds 935 msec
