
                                 *****************
                                 * O   R   C   A *
                                 *****************

                                            #,                                       
                                            ###                                      
                                            ####                                     
                                            #####                                    
                                            ######                                   
                                           ########,                                 
                                     ,,################,,,,,                         
                               ,,#################################,,                 
                          ,,##########################################,,             
                       ,#########################################, ''#####,          
                    ,#############################################,,   '####,        
                  ,##################################################,,,,####,       
                ,###########''''           ''''###############################       
              ,#####''   ,,,,##########,,,,          '''####'''          '####       
            ,##' ,,,,###########################,,,                        '##       
           ' ,,###''''                  '''############,,,                           
         ,,##''                                '''############,,,,        ,,,,,,###''
      ,#''                                            '''#######################'''  
     '                                                          ''''####''''         
             ,#######,   #######,   ,#######,      ##                                
            ,#'     '#,  ##    ##  ,#'     '#,    #''#        ,####,    ,#,          
            ##       ##  ##   ,#'  ##            #'  '#       #'       ,# #          
            ##       ##  #######   ##           ,######,      #####,      #          
            '#,     ,#'  ##    ##  '#,     ,#' ,#      #,     #,   #      #          
             '#######'   ##     ##  '#######'  #'      '#     '####' #    #          



                #########################################################
                #                        -***-                          #
                #          Department of theory and spectroscopy        #
                #                                                       #
                #                      Frank Neese                      #
                #                                                       #
                #     Directorship, Architecture, Infrastructure        #
                #                    SHARK, DRIVERS                     #
                #        Core code/Algorithms in most modules           #
                #                                                       #
                #        Max Planck Institute fuer Kohlenforschung      #
                #                Kaiser Wilhelm Platz 1                 #
                #                 D-45470 Muelheim/Ruhr                 #
                #                      Germany                          #
                #                                                       #
                #                  All rights reserved                  #
                #                        -***-                          #
                #########################################################


                         Program Version 6.1.0  -  RELEASE   -
                                (GIT: $679e74b$)
                          ($2025-06-10 18:02:51 +0200$)


 With contributions from (in alphabetic order):
[Max-Planck-Institut fuer Kohlenforschung]                               
  Daniel Aravena         : Magnetic Suceptibility                        
  Michael Atanasov       : Ab Initio Ligand Field Theory (pilot matlab implementation)
  Alexander A. Auer      : GIAO ZORA, VPT2 properties, NMR spectrum      
  Ute Becker             : All parallelization in ORCA, NUMFREQ, NUMCALC 
  Giovanni Bistoni       : ED, misc. LED, open-shell LED, HFLD           
  Dmytro Bykov           : pre 5.0 version of the SCF Hessian            
  Marcos Casanova-Páez   : Triplet and SCS-CIS(D). UHF-(DLPNO)-IP/EA/STEOM-CCSD. UHF-CVS-IP/STEOM-CCSD   
  Vijay G. Chilkuri      : MRCI spin determinant printing, contributions to CSF-ICE 
  Pauline Colinet        : FMM embedding                                 
  Dipayan Datta          : RHF DLPNO-CCSD density                        
  Achintya Kumar Dutta   : EOM-CC, STEOM-CC                              
  Nicolas Foglia         : Exact transition moments, OPA infrastructure, MCD improvements    
  Dmitry Ganyushin       : Spin-Orbit,Spin-Spin,Magnetic field MRCI      
  Miquel Garcia-Rates    : C-PCM and meta-GGA Hessian, CCSD/C-PCM, Gaussian charge scheme 
  Tiago L. C. Gouveia    : GS-ROHF, GS-ROCIS                             
  Yang Guo               : DLPNO-NEVPT2, F12-NEVPT2, CIM, IAO-localization        
  Andreas Hansen         : Spin unrestricted coupled pair/coupled cluster methods 
  Ingolf Harden          : AUTO-CI MPn and infrastructure                
  Benjamin Helmich-Paris : MC-RPA, TRAH-(SCF,CASSCF), AVAS, COSX integrals, SCF dyn. polar., MC-PDFT, srDFT 
  Lee Huntington         : MR-EOM, pCC                                   
  Robert Izsak           : Overlap fitted RIJCOSX, COSX-SCS-MP3, EOM     
  Riya Kayal             : Wick's Theorem for AUTO-CI, AUTO-CI UHF-CCSDT 
  Emily Kempfer          : AUTO-CI RHF CISDT and CCSDT, approximate NEVPT4
  Christian Kollmar      : KDIIS, OOCD, Brueckner-CCSD(T), CCSD density, CASPT2, CASPT2-K, improved NEVPT2 
  Axel Koslowski         : Symmetry handling                             
  Simone Kossmann        : meta-GGA functionals, TD-DFT gradient, OOMP2, (MP2 Hessian; deprecated post 5.0) 
  Lucas Lang             : DCDCAS, Hyperfine gauge corrections, ICE-SOC+SSC
  Marvin Lechner         : AUTO-CI (C++ implementation), FIC-MRCC        
  Spencer Leger          : CASSCF response                               
  Dagmar Lenk            : GEPOL surface, SMD, ORCA-2-JSON               
  Dimitrios Liakos       : Extrapolation schemes; Compound Job, Property file
  Dimitrios Manganas     : Further ROCIS development; embedding schemes. LFT, Crystal Embedding 
  Dimitrios Pantazis     : SARC Basis sets                               
  Anastasios Papadopoulos: AUTO-CI, single reference methods and gradients 
  Taras Petrenko         : pre 6.0 DFT Hessian and TD-DFT gradient,  ECA, NRVS 
  Petra Pikulova         : Analytic Raman intensities                    
  Peter Pinski           : DLPNO-MP2, DLPNO-MP2 Gradient                 
  Shashank Vittal Rao    : ES-AILFT, MagRelax                            
  Christoph Reimann      : Effective Core Potentials                     
  Marius Retegan         : Local ZFS, SOC                                
  Christoph Riplinger    : Optimizer, TS searches, QM/MM, DLPNO-CCSD(T), (RO)-DLPNO pert. Triples 
  Michael Roemelt        : Original ROCIS implementation, recursive CI coupling coefficients
  Masaaki Saitow         : Open-shell DLPNO-CCSD energy and density      
  Barbara Sandhoefer     : DKH picture change effects                    
  Yorick L. A. Schmerwitz: GMF and freeze-and-release deltaSCF, NEB S-IDPP initial path                    
  Kantharuban Sivalingam : CASSCF convergence/infrastructure, NEVPT2, NEVPT3, NEVPT4(SD), FIC-MRCI and CEPA variants
  Bernardo de Souza      : ESD, SOC TD-DFT                               
  Georgi L. Stoychev     : AutoAux, RI-MP2 NMR, DLPNO-MP2 response, X2C  
  Van Anh Tran           : RI-MP2 g-tensors                              
  Willem Van den Heuvel  : Paramagnetic NMR                              
  Zikuan Wang            : NOTCH, Electric field optimization            
  Frank Wennmohs         : Technical directorship and infrastructure     
  Hang Xu                : AUTO-CI-Response properties                   
                                                                         
[FACCTs GmbH]                                                            
  Markus Bursch, Nicolas Foglia, Miquel Garcia-Rates, Ingolf Harden, Hagen Neugebauer, Anastasios Papadopoulos, 
  Christoph Riplinger, Bernardo de Souza, Georgi L. Stoychev                                                    
                                                                 
  APM, various basis sets, CI-OPT, improved COSX, DLPNO-Multilevel,           
  DOCKER, DRACO, updates on ESD, Fragmentator, GOAT, IRC, LR-CPCM, L-BFGS, MBIS, meta-GGA TD-DFT gradient, ML-optimized integration grids, 
  MM, NACMEs, nearIR, NEB, NEB-TS, NL-DFT gradient (VV10), 2- and 3-layer-ONIOM, interface openCOSMO-RS, QMMM,   
  Crystal-QMMM, RESP, rigid body optimization, SF, symmetry and pop. for TD-DFT, various functionals, SOLVATOR                                   
                                                                         
[Other institutions]                                                     
  V. Asgeirsson          : NEB                                           
  Christoph Bannwarth    : sTDA-DFT, sTD-DFT, PBEh-3c, B97-3c, D3        
  Giovanni Bistoni       : ETS/NOCV, ADLD/ADEX, COVALED                  
  Martin Brehm           : Molecular dynamics                            
  Ronald Cardenas        : ETS/NOCV                                      
  Martina Colucci        : COVALED                                       
  Sebastian Ehlert       : rSCAN, r2SCAN, r2SCAN-3c, D4, dhf basis sets  
  Marvin Friede          : D4 for Fr, Ra, Ac-Lr                          
  Lars Goerigk           : TD-DFT with DH, B97 family of functionals     
  Stefan Grimme          : VdW corrections, initial TS optimization, DFT functionals, gCP, sTDA/sTD-DF 
  Waldemar Hujo          : DFT-NL                                        
  H. Jonsson             : NEB                                           
  Holger Kruse           : gCP                                           
  Marcel Mueller         : wB97X-3c, vDZP basis set                      
  Hagen Neugebauer       : wr2SCAN, Native XTB                           
  Gianluca Regni         : ADLD/ADEX                                     
  Tobias Risthaus        : pre 6.0 range-separated hybrid DFT and stability analysis
  Lukas Wittmann         : regularized MP2, r2SCAN double-hybrids, wr2SCAN        
                                                                         
We gratefully acknowledge several colleagues who have allowed us to      
interface, adapt or use parts of their codes:                            
  Ed Valeev, F. Pavosevic, A. Kumar             : LibInt (2-el integral package), F12 methods 
  Garnet Chan, S. Sharma, J. Yang, R. Olivares  : DMRG                   
  Ulf Ekstrom                                   : XCFun DFT Library      
  Mihaly Kallay                                 : mrcc  (arbitrary order and MRCC methods)
  Frank Weinhold                                : gennbo (NPA and NBO analysis)           
  Simon Mueller                                 : openCOSMO-RS                            
  Christopher J. Cramer and Donald G. Truhlar   : smd solvation model                     
  S Lehtola, MJT Oliveira, MAL Marques          : LibXC Library                           
  Liviu Ungur et al                             : ANISO software                          


 Your calculation uses the libint2 library for the computation of 2-el integrals
 For citations please refer to: http://libint.valeyev.net

 Your ORCA version has been built with support for libXC version: 7.0.0
 For citations please refer to: https://libxc.gitlab.io

 This ORCA versions uses:
   CBLAS   interface :  Fast vector & matrix operations
   LAPACKE interface :  Fast linear algebra routines
   SCALAPACK package :  Parallel linear algebra routines
   Shared memory     :  Shared parallel matrices
   BLAS/LAPACK       :  OpenBLAS 0.3.29  USE64BITINT DYNAMIC_ARCH NO_AFFINITY Haswell SINGLE_THREADED
        Core in use  :  Haswell
   Copyright (c) 2011-2014, The OpenBLAS Project


  ***********************************
  * Starting time: Thu Aug 14 10:45:48 2025
  * Host name:     CHEMLAB02
  * Process ID:    1623406
  * Working dir.:  /home/vivek/mm-project/vivek/xtb-goat/k
  ***********************************



***************************************
The coordinates will be read from file: k-input-coordinates.xyz
***************************************


Your calculation utilizes the semiempirical GFN2-xTB method
Please cite in your paper:
Bannwarth, C.; Ehlert S.; Grimme, S. J. Chem. Theory Comput. 2019, 15, 1652.
   

================================================================================

================================================================================
                                        WARNINGS
                       Please study these warnings very carefully!
================================================================================


================================================================================
 STARTING AUTOMATIC FRAGMENTATION: 
================================================================================

WARNING: Geometry Optimization
  ===> : Switching off AutoStart
         For restart on a previous wavefunction, please use MOREAD

WARNING: Found dipole moment calculation with XTB calculation
  ===> : Switching off dipole moment calculation


================================================================================
                                       INPUT FILE
================================================================================
NAME = k.inp
|  1> ! xtb goat
|  2> 
|  3> * xyzfile 0 1 k-input-coordinates.xyz
|  4> 
|  5>                          ****END OF INPUT****
================================================================================

                       *****************************
                       * Geometry Optimization Run *
                       *****************************


                       *********************************
                       *              GOAT             *
                       * Global Optimization Algorithm *
                       *********************************

Geometry optimization settings:
Update method            Update   .... BFGS
Choice of coordinates    CoordSys .... (2022) Redundant Internals
Initial Hessian          InHess   .... Almloef's Model
Max. no of cycles        MaxIter  .... 72

Convergence Tolerances:
Energy Change            TolE     ....  5.0000e-06 Eh
Max. Gradient            TolMAXG  ....  3.0000e-04 Eh/bohr
RMS Gradient             TolRMSG  ....  1.0000e-04 Eh/bohr
Max. Displacement        TolMAXD  ....  4.0000e-03 bohr
RMS Displacement         TolRMSD  ....  2.0000e-03 bohr
Strict Convergence                .... True

------------------------------------------------------------------------------
                        ORCA OPTIMIZATION COORDINATE SETUP
------------------------------------------------------------------------------

The optimization will be done in redundant internal coordinates (2022)
Making redundant internal coordinates   ...  (2022 redundants) done
Evaluating the initial hessian          ...  (Almloef) done
Evaluating the coordinates              ...  done
Calculating the B-matrix                .... done
Calculating the G-matrix                .... done
The number of degrees of freedom        ....  106

    -----------------------------------------------------------------
                    Redundant Internal Coordinates


    -----------------------------------------------------------------
         Definition                    Initial Value    Approx d2E/dq
    -----------------------------------------------------------------
      1. B(C   1,C   0)                  1.5274         0.377093   
      2. B(N   4,H   2)                  1.0193         0.418169   
      3. B(N   4,H   3)                  1.0177         0.420621   
      4. B(N   4,C   0)                  1.4603         0.432300   
      5. B(C   5,C   1)                  1.5320         0.370881   
      6. B(H   6,C   1)                  1.0974         0.350442   
      7. B(H   7,C   1)                  1.0973         0.350615   
      8. B(C   8,C   5)                  1.5359         0.365505   
      9. B(H   9,C   5)                  1.0955         0.352883   
     10. B(H  10,C   5)                  1.0969         0.351087   
     11. B(C  11,C   8)                  1.5500         0.347071   
     12. B(H  12,C   8)                  1.0979         0.349820   
     13. B(H  13,C   8)                  1.0982         0.349434   
     14. B(C  14,C  11)                  1.5337         0.368556   
     15. B(N  16,C  11)                  1.4901         0.387448   
     16. B(N  16,H  15)                  2.2780         0.010000   
     17. B(O  17,H  15)                  0.9720         0.497475   
     18. B(O  17,C  14)                  1.3833         0.573465   
     19. B(H  18,C   0)                  1.0954         0.353051   
     20. B(H  19,C   0)                  1.0949         0.353630   
     21. B(H  20,N  16)                  1.0149         0.424911   
     22. B(O  21,C  14)                  1.2520         0.928927   
     23. B(H  22,C  11)                  1.0983         0.349231   
     24. B(H  23,N  16)                  1.0274         0.405890   
     25. A(C   1,C   0,H  19)          110.2554         0.323853   
     26. A(C   1,C   0,N   4)          110.7672         0.370833   
     27. A(N   4,C   0,H  18)          109.0871         0.329147   
     28. A(C   1,C   0,H  18)          109.9630         0.323766   
     29. A(H  18,C   0,H  19)          107.7357         0.289115   
     30. A(N   4,C   0,H  19)          108.9668         0.329236   
     31. A(C   5,C   1,H   6)          109.3849         0.322492   
     32. A(C   5,C   1,H   7)          109.5032         0.322519   
     33. A(C   0,C   1,H   6)          109.7905         0.323372   
     34. A(C   0,C   1,C   5)          110.9735         0.363484   
     35. A(H   6,C   1,H   7)          107.1551         0.288393   
     36. A(C   0,C   1,H   7)          109.9525         0.323398   
     37. A(C   0,N   4,H   3)          109.1427         0.335945   
     38. A(C   0,N   4,H   2)          109.0908         0.335618   
     39. A(H   2,N   4,H   3)          106.5736         0.300247   
     40. A(C   8,C   5,H  10)          109.2786         0.321819   
     41. A(C   1,C   5,H  10)          109.4236         0.322590   
     42. A(C   8,C   5,H   9)          110.6076         0.322088   
     43. A(C   1,C   5,H   9)          109.0051         0.322860   
     44. A(C   1,C   5,C   8)          111.3021         0.361552   
     45. A(H   9,C   5,H  10)          107.1261         0.288767   
     46. A(H  12,C   8,H  13)          106.9292         0.288161   
     47. A(C  11,C   8,H  12)          109.3288         0.318920   
     48. A(C  11,C   8,H  13)          110.2265         0.318862   
     49. A(C   5,C   8,H  13)          109.2603         0.321570   
     50. A(C   5,C   8,H  12)          107.7733         0.321629   
     51. A(C   5,C   8,C  11)          113.1080         0.357489   
     52. A(C  14,C  11,N  16)          106.1741         0.362510   
     53. A(C   8,C  11,N  16)          111.5964         0.358817   
     54. A(C   8,C  11,C  14)          117.6614         0.357995   
     55. A(N  16,C  11,H  22)          106.6947         0.322690   
     56. A(C  14,C  11,H  22)          106.7424         0.321978   
     57. A(C   8,C  11,H  22)          107.3875         0.318832   
     58. A(C  11,C  14,O  17)          113.4922         0.387894   
     59. A(O  17,C  14,O  21)          127.8984         0.454425   
     60. A(C  11,C  14,O  21)          118.2323         0.422372   
     61. A(H  20,N  16,H  23)          102.7316         0.299310   
     62. A(C  11,N  16,H  23)          102.9483         0.327962   
     63. A(C  11,N  16,H  20)          107.6165         0.330452   
     64. A(C  14,O  17,H  15)          108.4455         0.362446   
     65. D(H   6,C   1,C   0,H  19)   -179.2309         0.011343   
     66. D(H   6,C   1,C   0,N   4)    -58.5366         0.011343   
     67. D(C   5,C   1,C   0,N   4)   -179.5816         0.011343   
     68. D(C   5,C   1,C   0,H  18)    -58.9293         0.011343   
     69. D(H   6,C   1,C   0,H  18)     62.1157         0.011343   
     70. D(C   5,C   1,C   0,H  19)     59.7241         0.011343   
     71. D(H   2,N   4,C   0,C   1)     54.9605         0.015933   
     72. D(H   3,N   4,C   0,H  18)     49.8712         0.015933   
     73. D(H   3,N   4,C   0,C   1)    171.0423         0.015933   
     74. D(H   2,N   4,C   0,H  19)    176.4166         0.015933   
     75. D(H   2,N   4,C   0,H  18)    -66.2106         0.015933   
     76. D(H   9,C   5,C   1,C   0)    -59.4067         0.010993   
     77. D(C   8,C   5,C   1,H   6)     57.0432         0.010993   
     78. D(C   8,C   5,C   1,C   0)    178.3268         0.010993   
     79. D(C   8,C   5,C   1,H   7)    -60.1080         0.010993   
     80. D(H   9,C   5,C   1,H   7)     62.1584         0.010993   
     81. D(H   9,C   5,C   1,H   6)    179.3096         0.010993   
     82. D(H  12,C   8,C   5,H   9)   -177.2336         0.010696   
     83. D(H  12,C   8,C   5,C   1)    -55.8980         0.010696   
     84. D(C  11,C   8,C   5,H  10)    -55.9081         0.010696   
     85. D(C  11,C   8,C   5,H   9)     61.7905         0.010696   
     86. D(H  12,C   8,C   5,H  10)     65.0678         0.010696   
     87. D(C  11,C   8,C   5,C   1)   -176.8739         0.010696   
     88. D(N  16,C  11,C   8,H  13)     56.3497         0.010000   
     89. D(N  16,C  11,C   8,H  12)    173.6143         0.010000   
     90. D(N  16,C  11,C   8,C   5)    -66.2948         0.010000   
     91. D(C  14,C  11,C   8,H  13)    -66.7253         0.010000   
     92. D(C  14,C  11,C   8,H  12)     50.5394         0.010000   
     93. D(C  14,C  11,C   8,C   5)    170.6302         0.010000   
     94. D(O  17,C  14,C  11,N  16)     50.2169         0.010178   
     95. D(O  17,C  14,C  11,C   8)    175.9995         0.010178   
     96. D(O  21,C  14,C  11,N  16)   -123.2909         0.010178   
     97. D(O  21,C  14,C  11,C   8)      2.4917         0.010178   
     98. D(O  17,C  14,C  11,H  22)    -63.3363         0.010178   
     99. D(H  23,N  16,C  11,H  22)    142.2476         0.013734   
    100. D(H  23,N  16,C  11,C  14)     28.6615         0.013734   
    101. D(H  23,N  16,C  11,C   8)   -100.7351         0.013734   
    102. D(H  20,N  16,C  11,H  22)   -109.6770         0.013734   
    103. D(H  20,N  16,C  11,C  14)    136.7369         0.013734   
    104. D(H  20,N  16,C  11,C   8)      7.3403         0.013734   
    105. D(H  15,O  17,C  14,O  21)    166.9837         0.023887   
    106. D(H  15,O  17,C  14,C  11)     -5.7639         0.023887   
    -----------------------------------------------------------------

Number of atoms                         .... 24
Number of degrees of freedom            .... 106


         *************************************************************
         *                GEOMETRY OPTIMIZATION CYCLE   1            *
         *************************************************************
---------------------------------
CARTESIAN COORDINATES (ANGSTROEM)
---------------------------------
  C   -14.225233    5.849156    0.676241
  C   -12.919927    6.637206    0.585401
  H   -15.326627    7.347561   -0.152423
  H   -16.227750    6.201167    0.582616
  N   -15.374955    6.749415    0.671510
  C   -11.710766    5.696553    0.579583
  H   -12.914545    7.242994   -0.329629
  H   -12.841052    7.329972    1.432659
  C   -10.395756    6.479003    0.446741
  H   -11.715404    5.103873    1.500915
  H   -11.799808    4.993193   -0.257403
  C    -9.148774    5.562532    0.358911
  H   -10.460870    7.092064   -0.461700
  H   -10.299128    7.171472    1.293593
  C    -7.807716    6.216953    0.004685
  H    -7.055672    4.482278    0.371695
  N    -8.924488    4.818283    1.630174
  O    -6.739991    5.337959    0.035539
  H   -14.306075    5.160450   -0.171703
  H   -14.244508    5.252116    1.593877
  H    -9.722019    4.992898    2.233147
  O    -7.777027    7.459215   -0.148441
  H    -9.348246    4.810279   -0.416127
  H    -8.175917    5.356787    2.083207

----------------------------
CARTESIAN COORDINATES (A.U.)
----------------------------
  NO LB    ZA    FRAG    MASS        X           Y           Z
   0 C   6.0000    1    12.011  -26.881795   11.053303    1.277910
   1 C   6.0000    1    12.011  -24.415124   12.542502    1.106248
   2 H   1.0000    1     1.008  -28.963128   13.884878   -0.288038
   3 H   1.0000    1     1.008  -30.666003   11.718507    1.100985
   4 N   7.0000    1    14.007  -29.054454   12.754546    1.268970
   5 C   6.0000    1    12.011  -22.130141   10.764925    1.095253
   6 H   1.0000    1     1.008  -24.404953   13.687275   -0.622909
   7 H   1.0000    1     1.008  -24.266072   13.851640    2.707333
   8 C   6.0000    1    12.011  -19.645132   12.243541    0.844218
   9 H   1.0000    1     1.008  -22.138905    9.644922    2.836318
  10 H   1.0000    1     1.008  -22.298406    9.435767   -0.486421
  11 C   6.0000    1    12.011  -17.288677   10.511662    0.678243
  12 H   1.0000    1     1.008  -19.768179   13.402059   -0.872487
  13 H   1.0000    1     1.008  -19.462531   13.552118    2.444536
  14 C   6.0000    1    12.011  -14.754445   11.748339    0.008853
  15 H   1.0000    1     1.008  -13.333288    8.470278    0.702402
  16 N   7.0000    1    14.007  -16.864838    9.105235    3.080582
  17 O   8.0000    1    15.999  -12.736737   10.087281    0.067159
  18 H   1.0000    1     1.008  -27.034564    9.751837   -0.324472
  19 H   1.0000    1     1.008  -26.918219    9.925061    3.011991
  20 H   1.0000    1     1.008  -18.371953    9.435210    4.220036
  21 O   8.0000    1    15.999  -14.696451   14.095874   -0.280513
  22 H   1.0000    1     1.008  -17.665625    9.090110   -0.786366
  23 H   1.0000    1     1.008  -15.450244   10.122860    3.936691

      -----------------------------------------------------------      
     |                   =====================                   |     
     |                           x T B                           |     
     |                   =====================                   |     
     |                         S. Grimme                         |     
     |          Mulliken Center for Theoretical Chemistry        |     
     |                    University of Bonn                     |     
      -----------------------------------------------------------      

   * xtb version 6.7.1 (edcfbbe) compiled by 'albert@albert-system' on 2024-07-22

   xtb is free software: you can redistribute it and/or modify it under
   the terms of the GNU Lesser General Public License as published by
   the Free Software Foundation, either version 3 of the License, or
   (at your option) any later version.
   
   xtb is distributed in the hope that it will be useful,
   but WITHOUT ANY WARRANTY; without even the implied warranty of
   MERCHANTABILITY or FITNESS FOR A PARTICULAR PURPOSE.  See the
   GNU Lesser General Public License for more details.
   
   Cite this work as:
   * C. Bannwarth, E. Caldeweyher, S. Ehlert, A. Hansen, P. Pracht,
     J. Seibert, S. Spicher, S. Grimme, WIREs Comput. Mol. Sci., 2020, 11,
     e01493. DOI: 10.1002/wcms.1493
   
   for GFN2-xTB:
   * C. Bannwarth, S. Ehlert and S. Grimme., J. Chem. Theory Comput., 2019,
     15, 1652-1671. DOI: 10.1021/acs.jctc.8b01176
   for GFN1-xTB:
   * S. Grimme, C. Bannwarth, P. Shushkov, J. Chem. Theory Comput., 2017,
     13, 1989-2009. DOI: 10.1021/acs.jctc.7b00118
   for GFN0-xTB:
   * P. Pracht, E. Caldeweyher, S. Ehlert, S. Grimme, ChemRxiv, 2019, preprint.
     DOI: 10.26434/chemrxiv.8326202.v1
   for GFN-FF:
   * S. Spicher and S. Grimme, Angew. Chem. Int. Ed., 2020, 59, 15665-15673.
     DOI: 10.1002/anie.202004239
   
   for ALPB and GBSA implicit solvation:
   * S. Ehlert, M. Stahn, S. Spicher, S. Grimme, J. Chem. Theory Comput.,
     2021, 17, 4250-4261. DOI: 10.1021/acs.jctc.1c00471
   
   for ddCOSMO and CPCM-X implicit solvation:
   * M. Stahn, S. Ehlert, S. Grimme, J. Phys. Chem. A,
     2023, XX, XXXX-XXXX. DOI: 10.1021/acs.jpca.3c04382
   
   for DFT-D4:
   * E. Caldeweyher, C. Bannwarth and S. Grimme, J. Chem. Phys., 2017,
     147, 034112. DOI: 10.1063/1.4993215
   * E. Caldeweyher, S. Ehlert, A. Hansen, H. Neugebauer, S. Spicher,
     C. Bannwarth and S. Grimme, J. Chem. Phys., 2019, 150, 154122.
     DOI: 10.1063/1.5090222
   * E. Caldeweyher, J.-M. Mewes, S. Ehlert and S. Grimme, Phys. Chem. Chem. Phys.
     2020, 22, 8499-8512. DOI: 10.1039/D0CP00502A
   
   for sTDA-xTB:
   * S. Grimme and C. Bannwarth, J. Chem. Phys., 2016, 145, 054103.
     DOI: 10.1063/1.4959605
   
   in the mass-spec context:
   * V. Asgeirsson, C. Bauer and S. Grimme, Chem. Sci., 2017, 8, 4879.
     DOI: 10.1039/c7sc00601b
   * J. Koopman and S. Grimme, ACS Omega 2019, 4, 12, 15120-15133.
     DOI: 10.1021/acsomega.9b02011
   
   for metadynamics refer to:
   * S. Grimme, J. Chem. Theory Comput., 2019, 155, 2847-2862
     DOI: 10.1021/acs.jctc.9b00143
   
   for SPH calculations refer to:
   * S. Spicher and S. Grimme, J. Chem. Theory Comput., 2021, 17, 1701-1714
     DOI: 10.1021/acs.jctc.0c01306
   
   for ONIOM refer to:
   * C. Plett, A. Katbashev, S. Ehlert, S. Grimme, M. Bursch,
     Phys. Chem. Chem. Phys., 2023, 25, 17860-17868. DOI: 10.1039/D3CP02178E
   
   for DIPRO refer to:
   * J. Kohn, N. Gildemeister, S. Grimme, D. Fazzi, A. Hansen,
     J. Chem. Phys., 2023, just accepted.
   
   for PTB refer to:
   * S. Grimme, M. Mueller, A. Hansen, J. Chem. Phys., 2023, 158, 124111.
     DOI: 10.1063/5.0137838
   
   with help from (in alphabetical order)
   P. Atkinson, C. Bannwarth, F. Bohle, G. Brandenburg, E. Caldeweyher
   M. Checinski, S. Dohm, S. Ehlert, S. Ehrlich, I. Gerasimov, C. Hölzer
   A. Katbashev, J. Kohn, J. Koopman, C. Lavigne, S. Lehtola, F. März, M. Müller,
   F. Musil, H. Neugebauer, J. Pisarek, C. Plett, P. Pracht, F. Pultar,
   J. Seibert, P. Shushkov, S. Spicher, M. Stahn, M. Steiner, T. Strunk,
   J. Stückrath, T. Rose, and J. Unsleber
   
 * started run on 2025/08/14 at 10:45:48.398     
   ID    Z sym.   atoms
    1    6 C      1, 2, 6, 9, 12, 15
    2    1 H      3, 4, 7, 8, 10, 11, 13, 14, 16, 19-21, 23, 24
    3    7 N      5, 17
    4    8 O      18, 22

           -------------------------------------------------
          |                Calculation Setup                |
           -------------------------------------------------

          program call               : otool_xtb k_XTB.xyz --grad -c 0 -u 0 -P 1 --namespace k --input k_XTB.input.tmp --acc 0.200000
          calculation namespace      : k
          coordinate file            : k_XTB.xyz
          omp threads                :                     1


           -------------------------------------------------
          |                 G F N 2 - x T B                 |
           -------------------------------------------------

        Reference                      10.1021/acs.jctc.8b01176
      * Hamiltonian:
        H0-scaling (s, p, d)           1.850000    2.230000    2.230000
        zeta-weighting                 0.500000
      * Dispersion:
        s8                             2.700000
        a1                             0.520000
        a2                             5.000000
        s9                             5.000000
      * Repulsion:
        kExp                           1.500000    1.000000
        rExp                           1.000000
      * Coulomb:
        alpha                          2.000000
        third order                    shell-resolved
        anisotropic                    true
        a3                             3.000000
        a5                             4.000000
        cn-shift                       1.200000
        cn-exp                         4.000000
        max-rad                        5.000000


          ...................................................
          :                      SETUP                      :
          :.................................................:
          :  # basis functions                  54          :
          :  # atomic orbitals                  54          :
          :  # shells                           34          :
          :  # electrons                        60          :
          :  max. iterations                   250          :
          :  Hamiltonian                  GFN2-xTB          :
          :  restarted?                      false          :
          :  GBSA solvation                  false          :
          :  PC potential                    false          :
          :  electronic temp.          300.0000000     K    :
          :  accuracy                    0.2000000          :
          :  -> integral cutoff          0.3198970E+02      :
          :  -> integral neglect         0.2000000E-08      :
          :  -> SCF convergence          0.2000000E-06 Eh   :
          :  -> wf. convergence          0.2000000E-04 e    :
          :  Broyden damping             0.4000000          :
          :  net charge                          0          :
          :  unpaired electrons                  0          :
          ...................................................

 iter      E             dE          RMSdq      gap      omega  full diag
   1    -34.2035557 -0.342036E+02  0.386E+00    3.76       0.0  T
   2    -34.2643959 -0.608402E-01  0.202E+00    3.19       1.0  T
   3    -34.2679006 -0.350470E-02  0.120E+00    3.43       1.0  T
   4    -34.2739235 -0.602296E-02  0.237E-01    2.82       1.0  T
   5    -34.2744051 -0.481530E-03  0.766E-02    2.80       1.0  T
   6    -34.2744258 -0.207713E-04  0.356E-02    2.79       1.0  T
   7    -34.2744291 -0.327408E-05  0.834E-03    2.80       2.4  T
   8    -34.2744295 -0.407900E-06  0.337E-03    2.80       6.1  T
   9    -34.2744295 -0.253404E-07  0.127E-03    2.80      16.0  T
  10    -34.2744295 -0.632450E-08  0.448E-04    2.80      45.5  T
  11    -34.2744295 -0.466869E-09  0.139E-04    2.80     147.3  T
  12    -34.2744295 -0.972804E-10  0.514E-05    2.80     397.5  T

   *** convergence criteria satisfied after 12 iterations ***

         #    Occupation            Energy/Eh            Energy/eV
      -------------------------------------------------------------
         1        2.0000           -0.7434130             -20.2293
       ...           ...                  ...                  ...
        24        2.0000           -0.4575391             -12.4503
        25        2.0000           -0.4557570             -12.4018
        26        2.0000           -0.4458184             -12.1313
        27        2.0000           -0.4372459             -11.8981
        28        2.0000           -0.4242373             -11.5441
        29        2.0000           -0.4003296             -10.8935
        30        2.0000           -0.3696772             -10.0594 (HOMO)
        31                         -0.2667613              -7.2589 (LUMO)
        32                         -0.0225677              -0.6141
        33                          0.0234480               0.6381
        34                          0.0367845               1.0010
        35                          0.0461653               1.2562
       ...                                ...                  ...
        54                          0.4789244              13.0322
      -------------------------------------------------------------
                  HL-Gap            0.1029159 Eh            2.8005 eV
             Fermi-level           -0.3182193 Eh           -8.6592 eV

 SCC (total)                   0 d,  0 h,  0 min,  0.014 sec
 SCC setup                      ...        0 min,  0.000 sec (  0.586%)
 Dispersion                     ...        0 min,  0.000 sec (  0.508%)
 classical contributions        ...        0 min,  0.000 sec (  0.102%)
 integral evaluation            ...        0 min,  0.001 sec (  7.639%)
 iterations                     ...        0 min,  0.009 sec ( 67.923%)
 molecular gradient             ...        0 min,  0.003 sec ( 22.863%)
 printout                       ...        0 min,  0.000 sec (  0.320%)

         :::::::::::::::::::::::::::::::::::::::::::::::::::::
         ::                     SUMMARY                     ::
         :::::::::::::::::::::::::::::::::::::::::::::::::::::
         :: total energy             -33.927415606832 Eh    ::
         :: gradient norm              0.113800201047 Eh/a0 ::
         :: HOMO-LUMO gap              2.800484521258 eV    ::
         ::.................................................::
         :: SCC energy               -34.274486182755 Eh    ::
         :: -> isotropic ES            0.069733925558 Eh    ::
         :: -> anisotropic ES          0.006400811943 Eh    ::
         :: -> anisotropic XC          0.017823528338 Eh    ::
         :: -> dispersion             -0.015598172981 Eh    ::
         :: repulsion energy           0.347070575923 Eh    ::
         :: add. restraining           0.000000000000 Eh    ::
         :: total charge              -0.000000000000 e     ::
         :::::::::::::::::::::::::::::::::::::::::::::::::::::


Property printout bound to 'properties.out'

           -------------------------------------------------
          | TOTAL ENERGY              -33.927415606832 Eh   |
          | GRADIENT NORM               0.113800201047 Eh/α |
          | HOMO-LUMO GAP               2.800484521258 eV   |
           -------------------------------------------------

------------------------------------------------------------------------
 * finished run on 2025/08/14 at 10:45:48.416     
------------------------------------------------------------------------
 total:
 * wall-time:     0 d,  0 h,  0 min,  0.018 sec
 *  cpu-time:     0 d,  0 h,  0 min,  0.013 sec
 * ratio c/w:     0.713 speedup
 SCF:
 * wall-time:     0 d,  0 h,  0 min,  0.014 sec
 *  cpu-time:     0 d,  0 h,  0 min,  0.009 sec
 * ratio c/w:     0.620 speedup


-------------------------   --------------------
FINAL SINGLE POINT ENERGY       -33.927415606830
-------------------------   --------------------


-------------
DIPOLE MOMENT
-------------
                                X             Y             Z
Total Dipole Moment    :     -0.95300      -1.32400       0.12200
                        -----------------------------------------
Magnitude (a.u.)       :      1.63587
Magnitude (Debye)      :      4.15805


------------------
CARTESIAN GRADIENT
------------------

   1   C   :    0.003335658   -0.004004813    0.003019193
   2   C   :   -0.004044077    0.000106997   -0.001160957
   3   H   :   -0.000205071    0.000905503   -0.002692198
   4   H   :   -0.001056783   -0.001818404   -0.002136485
   5   N   :    0.001312656   -0.001434216   -0.000695275
   6   C   :   -0.003783631    0.000616069    0.001126715
   7   H   :    0.000778935    0.002451557   -0.002121411
   8   H   :    0.002300976    0.003040598    0.002471685
   9   C   :   -0.005811354   -0.004986569    0.004859567
  10   H   :    0.000183838   -0.001112127    0.001549674
  11   H   :   -0.000278555   -0.001993442   -0.001667587
  12   C   :    0.008776378    0.013699113   -0.003000387
  13   H   :   -0.003575443    0.002198422   -0.003011003
  14   H   :   -0.002108443    0.002847698    0.002735104
  15   C   :    0.002778261   -0.057945317   -0.003763462
  16   H   :   -0.000697076   -0.002080902    0.002589592
  17   N   :   -0.009984701   -0.019633222    0.001025511
  18   O   :    0.028115723   -0.030759477    0.002672657
  19   H   :   -0.006002243    0.005600414    0.003001083
  20   H   :    0.001073556   -0.002446696   -0.000092453
  21   H   :    0.002632644    0.006644546    0.000649252
  22   O   :   -0.017137119    0.078980161   -0.002332568
  23   H   :    0.001724711    0.002274539    0.002181725
  24   H   :    0.001671161    0.008849568   -0.005207970

Difference to translation invariance:
           :    0.0000000000    0.0000000000    0.0000000000

Difference to rotation invariance:
           :    0.0000001810    0.0000001994    0.0000001460

Norm of the Cartesian gradient     ...    0.1138002010
RMS gradient                       ...    0.0134114823
MAX gradient                       ...    0.0789801607
------------------------------------------------------------------------------
                         ORCA GEOMETRY RELAXATION STEP
------------------------------------------------------------------------------

Reading the OPT-File                    .... done
Getting information on internals        .... done
Copying old internal coords+grads       .... done
Making the new internal coordinates     .... (2022 redundants) done
Validating the new internal coordinates .... (2022 redundants) done
Calculating the B-matrix                .... done
Calculating the G,G- and P matrices     .... done
Transforming gradient to internals      .... done
Projecting the internal gradient        .... done
Number of atoms                         ....  24
Number of internal coordinates          .... 106
Current Energy                          ....   -33.927415607 Eh
Current gradient norm                   ....     0.113800201 Eh/bohr
Maximum allowed component of the step   ....  0.300
Current trust radius                    ....  0.300
Evaluating the initial hessian          ....  (Almloef) done
Projecting the Hessian                  .... done
Forming the augmented Hessian           .... done
Diagonalizing the augmented Hessian     .... done
Last element of RFO vector              ....  0.958993529
Lowest eigenvalues of augmented Hessian:
 -0.018949255  0.010033477  0.010113357  0.010702843  0.010993293
Length of the computed step             ....  0.295547316
The final length of the internal step   ....  0.295547316
Converting the step to Cartesian space:
 Initial RMS(Int)=    0.0287060930
Transforming coordinates:
 Iter   0:  RMS(Cart)=    0.0603843350 RMS(Int)=    0.6080888721
 Iter   5:  RMS(Cart)=    0.0000000966 RMS(Int)=    0.0000000934
done
Storing new coordinates                 .... done

                                .--------------------.
          ----------------------|Geometry convergence|-------------------------
          Item                value                   Tolerance       Converged
          ---------------------------------------------------------------------
          RMS gradient        0.0099676772            0.0001000000      NO
          MAX gradient        0.0782285723            0.0003000000      NO
          RMS step            0.0287060930            0.0020000000      NO
          MAX step            0.1059316375            0.0040000000      NO
          -------------------------------------------------------------------------
          ........................................................
          Max(Bonds)      0.0437      Max(Angles)    3.44
          Max(Dihed)        6.07      Max(Improp)    0.00
          ---------------------------------------------------------------------

    ---------------------------------------------------------------------------
                         Redundant Internal Coordinates
                            (Angstroem and degrees)

        Definition                    Value    dE/dq     Step     New-Value
    ----------------------------------------------------------------------------
     1. B(C   1,C   0)                1.5274  0.002992 -0.0040    1.5235   
     2. B(N   4,H   2)                1.0193  0.002698 -0.0033    1.0160   
     3. B(N   4,H   3)                1.0177  0.002052 -0.0025    1.0152   
     4. B(N   4,C   0)                1.4603 -0.001469  0.0017    1.4620   
     5. B(C   5,C   1)                1.5320  0.003451 -0.0047    1.5273   
     6. B(H   6,C   1)                1.0974  0.003126 -0.0045    1.0929   
     7. B(H   7,C   1)                1.0973  0.003994 -0.0057    1.0915   
     8. B(C   8,C   5)                1.5359  0.005564 -0.0077    1.5283   
     9. B(H   9,C   5)                1.0955  0.001904 -0.0027    1.0928   
    10. B(H  10,C   5)                1.0969  0.002573 -0.0037    1.0932   
    11. B(C  11,C   8)                1.5500  0.014661 -0.0212    1.5288   
    12. B(H  12,C   8)                1.0979  0.003931 -0.0056    1.0922   
    13. B(H  13,C   8)                1.0982  0.003719 -0.0053    1.0928   
    14. B(C  14,C  11)                1.5337  0.005171 -0.0094    1.5243   
    15. B(N  16,C  11)                1.4901 -0.002294  0.0022    1.4923   
    16. B(N  16,H  15)                2.2780  0.001795  0.0076    2.2856   
    17. B(O  17,H  15)                0.9720  0.003542 -0.0029    0.9691   
    18. B(O  17,C  14)                1.3833  0.040865 -0.0379    1.3454   
    19. B(H  18,C   0)                1.0954 -0.005401  0.0077    1.1031   
    20. B(H  19,C   0)                1.0949  0.001238 -0.0018    1.0932   
    21. B(H  20,N  16)                1.0149 -0.000540  0.0006    1.0156   
    22. B(O  21,C  14)                1.2520  0.078229 -0.0437    1.2084   
    23. B(H  22,C  11)                1.0983 -0.003411  0.0049    1.1032   
    24. B(H  23,N  16)                1.0274  0.003560 -0.0044    1.0230   
    25. A(C   1,C   0,H  19)          110.26 -0.000641   -0.40    109.85   
    26. A(C   1,C   0,N   4)          110.77  0.002107   -0.32    110.44   
    27. A(N   4,C   0,H  18)          109.09 -0.007772    2.04    111.13   
    28. A(C   1,C   0,H  18)          109.96  0.003258   -0.37    109.59   
    29. A(H  18,C   0,H  19)          107.74  0.000139    0.00    107.74   
    30. A(N   4,C   0,H  19)          108.97  0.002765   -0.91    108.06   
    31. A(C   5,C   1,H   6)          109.38  0.000410    0.04    109.43   
    32. A(C   5,C   1,H   7)          109.50 -0.001414    0.22    109.72   
    33. A(C   0,C   1,H   6)          109.79  0.001537   -0.26    109.53   
    34. A(C   0,C   1,C   5)          110.97 -0.003020    0.43    111.41   
    35. A(H   6,C   1,H   7)          107.16 -0.000235    0.12    107.28   
    36. A(C   0,C   1,H   7)          109.95  0.002814   -0.56    109.39   
    37. A(C   0,N   4,H   3)          109.14 -0.001985    0.48    109.63   
    38. A(C   0,N   4,H   2)          109.09 -0.000355    0.22    109.31   
    39. A(H   2,N   4,H   3)          106.57 -0.000089    0.41    106.98   
    40. A(C   8,C   5,H  10)          109.28  0.000220   -0.02    109.26   
    41. A(C   1,C   5,H  10)          109.42 -0.000385    0.05    109.48   
    42. A(C   8,C   5,H   9)          110.61 -0.000336    0.05    110.66   
    43. A(C   1,C   5,H   9)          109.01  0.000063   -0.05    108.95   
    44. A(C   1,C   5,C   8)          111.30  0.000690   -0.13    111.17   
    45. A(H   9,C   5,H  10)          107.13 -0.000294    0.11    107.24   
    46. A(H  12,C   8,H  13)          106.93 -0.000942    0.14    107.07   
    47. A(C  11,C   8,H  12)          109.33  0.001169   -0.40    108.93   
    48. A(C  11,C   8,H  13)          110.23  0.002626   -0.43    109.80   
    49. A(C   5,C   8,H  13)          109.26 -0.003314    0.61    109.87   
    50. A(C   5,C   8,H  12)          107.77 -0.003740    0.73    108.50   
    51. A(C   5,C   8,C  11)          113.11  0.003812   -0.58    112.53   
    52. A(C  14,C  11,N  16)          106.17 -0.006567    0.82    106.99   
    53. A(C   8,C  11,N  16)          111.60 -0.006642    1.66    113.25   
    54. A(C   8,C  11,C  14)          117.66  0.015498   -3.13    114.53   
    55. A(N  16,C  11,H  22)          106.69  0.000021    0.37    107.06   
    56. A(C  14,C  11,H  22)          106.74 -0.001256    0.21    106.96   
    57. A(C   8,C  11,H  22)          107.39 -0.001953    0.29    107.68   
    58. A(C  11,C  14,O  17)          113.49 -0.003275    0.06    113.55   
    59. A(O  17,C  14,O  21)          127.90  0.024636   -2.56    125.34   
    60. A(C  11,C  14,O  21)          118.23 -0.022132    3.37    121.60   
    61. A(H  20,N  16,H  23)          102.73  0.002088    1.03    103.76   
    62. A(C  11,N  16,H  23)          102.95 -0.017972    3.44    106.39   
    63. A(C  11,N  16,H  20)          107.62 -0.003785    1.02    108.64   
    64. A(C  14,O  17,H  15)          108.45 -0.003023   -0.07    108.37   
    65. D(H   6,C   1,C   0,H  19)   -179.23 -0.000895    0.09   -179.14   
    66. D(H   6,C   1,C   0,N   4)    -58.54  0.003527   -1.53    -60.07   
    67. D(C   5,C   1,C   0,N   4)   -179.58  0.003958   -1.69   -181.27   
    68. D(C   5,C   1,C   0,H  18)    -58.93 -0.002256    0.40    -58.53   
    69. D(H   6,C   1,C   0,H  18)     62.12 -0.002687    0.56     62.68   
    70. D(C   5,C   1,C   0,H  19)     59.72 -0.000464   -0.07     59.65   
    71. D(H   2,N   4,C   0,C   1)     54.96 -0.000159    0.80     55.76   
    72. D(H   3,N   4,C   0,H  18)     49.87 -0.001880    1.01     50.88   
    73. D(H   3,N   4,C   0,C   1)    171.04 -0.001566    1.67    172.71   
    74. D(H   2,N   4,C   0,H  19)    176.42  0.002191   -0.51    175.91   
    75. D(H   2,N   4,C   0,H  18)    -66.21 -0.000473    0.13    -66.08   
    76. D(H   9,C   5,C   1,C   0)    -59.41 -0.000144    0.16    -59.24   
    77. D(C   8,C   5,C   1,H   6)     57.04 -0.000461    0.24     57.28   
    78. D(C   8,C   5,C   1,C   0)    178.33 -0.000215    0.22    178.55   
    79. D(C   8,C   5,C   1,H   7)    -60.11  0.000402   -0.06    -60.16   
    80. D(H   9,C   5,C   1,H   7)     62.16  0.000473   -0.11     62.04   
    81. D(H   9,C   5,C   1,H   6)    179.31 -0.000390    0.18    179.49   
    82. D(H  12,C   8,C   5,H   9)   -177.23  0.000612   -0.51   -177.74   
    83. D(H  12,C   8,C   5,C   1)    -55.90  0.000929   -0.63    -56.53   
    84. D(C  11,C   8,C   5,H  10)    -55.91 -0.000252   -0.29    -56.20   
    85. D(C  11,C   8,C   5,H   9)     61.79 -0.000677   -0.14     61.65   
    86. D(H  12,C   8,C   5,H  10)     65.07  0.001037   -0.66     64.41   
    87. D(C  11,C   8,C   5,C   1)   -176.87 -0.000360   -0.26   -177.13   
    88. D(N  16,C  11,C   8,H  13)     56.35 -0.000968   -0.78     55.57   
    89. D(N  16,C  11,C   8,H  12)    173.61  0.000117   -1.10    172.52   
    90. D(N  16,C  11,C   8,C   5)    -66.29 -0.001324   -0.84    -67.13   
    91. D(C  14,C  11,C   8,H  13)    -66.73  0.001426   -0.84    -67.56   
    92. D(C  14,C  11,C   8,H  12)     50.54  0.002511   -1.16     49.38   
    93. D(C  14,C  11,C   8,C   5)    170.63  0.001070   -0.89    169.74   
    94. D(O  17,C  14,C  11,N  16)     50.22 -0.001964    2.59     52.81   
    95. D(O  17,C  14,C  11,C   8)    176.00 -0.005133    3.22    179.22   
    96. D(O  21,C  14,C  11,N  16)   -123.29  0.002810   -4.69   -127.98   
    97. D(O  21,C  14,C  11,C   8)      2.49 -0.000358   -4.05     -1.56   
    98. D(O  17,C  14,C  11,H  22)    -63.34  0.001559    1.70    -61.63   
    99. D(H  23,N  16,C  11,H  22)    142.25  0.002101    1.10    143.34   
   100. D(H  23,N  16,C  11,C  14)     28.66  0.006499    0.32     28.98   
   101. D(H  23,N  16,C  11,C   8)   -100.74 -0.003812    2.56    -98.18   
   102. D(H  20,N  16,C  11,H  22)   -109.68 -0.004251    3.99   -105.69   
   103. D(H  20,N  16,C  11,C  14)    136.74  0.000146    3.21    139.95   
   104. D(H  20,N  16,C  11,C   8)      7.34 -0.010165    5.45     12.79   
   105. D(H  15,O  17,C  14,O  21)    166.98 -0.006704    6.07    173.05   
   106. D(H  15,O  17,C  14,C  11)     -5.76  0.002589   -2.55     -8.31   
    ----------------------------------------------------------------------------

Geometry step timings:
Preparation and reading OPT file:      0.000 s ( 0.686 %)
Internal coordinates            :      0.000 s ( 0.897 %)
B/P matrices and projection     :      0.001 s (37.447 %)
Hessian update/contruction      :      0.000 s (11.498 %)
Making the step                 :      0.001 s (29.536 %)
Converting the step to Cartesian:      0.000 s ( 3.692 %)
Storing new data                :      0.000 s ( 0.686 %)
Checking convergence            :      0.000 s ( 0.844 %)
Final printing                  :      0.000 s (14.557 %)
Total time                      :      0.002 s

Time for energy+gradient        :      0.021 s
Time for complete geometry iter :      0.023 s

         *************************************************************
         *                GEOMETRY OPTIMIZATION CYCLE   2            *
         *************************************************************
---------------------------------
CARTESIAN COORDINATES (ANGSTROEM)
---------------------------------
  C   -14.211332    5.852004    0.655859
  C   -12.901528    6.625063    0.568139
  H   -15.305299    7.374063   -0.143322
  H   -16.213214    6.246466    0.611420
  N   -15.347090    6.772381    0.674336
  C   -11.697751    5.685166    0.578829
  H   -12.889496    7.220734   -0.348109
  H   -12.833908    7.319796    1.407335
  C   -10.388507    6.463710    0.454687
  H   -11.712372    5.100178    1.501753
  H   -11.778332    4.980194   -0.252827
  C    -9.166066    5.547737    0.391687
  H   -10.427958    7.065053   -0.456260
  H   -10.288174    7.157579    1.293007
  C    -7.865873    6.252737    0.022838
  H    -7.072945    4.565982    0.336383
  N    -8.917111    4.809159    1.664271
  O    -6.802513    5.429083   -0.011626
  H   -14.283081    5.148876   -0.191026
  H   -14.235221    5.265928    1.578346
  H    -9.736023    4.901090    2.257872
  O    -7.838460    7.434919   -0.225847
  H    -9.354635    4.792217   -0.389837
  H    -8.195365    5.333264    2.165159

----------------------------
CARTESIAN COORDINATES (A.U.)
----------------------------
  NO LB    ZA    FRAG    MASS        X           Y           Z
   0 C   6.0000    1    12.011  -26.855525   11.058684    1.239394
   1 C   6.0000    1    12.011  -24.380355   12.519555    1.073628
   2 H   1.0000    1     1.008  -28.922824   13.934960   -0.270839
   3 H   1.0000    1     1.008  -30.638534   11.804110    1.155416
   4 N   7.0000    1    14.007  -29.001797   12.797946    1.274310
   5 C   6.0000    1    12.011  -22.105545   10.743406    1.093829
   6 H   1.0000    1     1.008  -24.357617   13.645211   -0.657830
   7 H   1.0000    1     1.008  -24.252570   13.832411    2.659477
   8 C   6.0000    1    12.011  -19.631434   12.214642    0.859234
   9 H   1.0000    1     1.008  -22.133175    9.637939    2.837903
  10 H   1.0000    1     1.008  -22.257821    9.411203   -0.477773
  11 C   6.0000    1    12.011  -17.321354   10.483705    0.740181
  12 H   1.0000    1     1.008  -19.705985   13.351015   -0.862207
  13 H   1.0000    1     1.008  -19.441832   13.525865    2.443430
  14 C   6.0000    1    12.011  -14.864346   11.815960    0.043158
  15 H   1.0000    1     1.008  -13.365929    8.628456    0.635671
  16 N   7.0000    1    14.007  -16.850898    9.087993    3.145017
  17 O   8.0000    1    15.999  -12.854887   10.259479   -0.021970
  18 H   1.0000    1     1.008  -26.991112    9.729965   -0.360988
  19 H   1.0000    1     1.008  -26.900669    9.951161    2.982642
  20 H   1.0000    1     1.008  -18.398417    9.261717    4.266759
  21 O   8.0000    1    15.999  -14.812543   14.049961   -0.426790
  22 H   1.0000    1     1.008  -17.677698    9.055977   -0.736685
  23 H   1.0000    1     1.008  -15.486995   10.078408    4.091558

      -----------------------------------------------------------      
     |                   =====================                   |     
     |                           x T B                           |     
     |                   =====================                   |     
     |                         S. Grimme                         |     
     |          Mulliken Center for Theoretical Chemistry        |     
     |                    University of Bonn                     |     
      -----------------------------------------------------------      

   * xtb version 6.7.1 (edcfbbe) compiled by 'albert@albert-system' on 2024-07-22

   xtb is free software: you can redistribute it and/or modify it under
   the terms of the GNU Lesser General Public License as published by
   the Free Software Foundation, either version 3 of the License, or
   (at your option) any later version.
   
   xtb is distributed in the hope that it will be useful,
   but WITHOUT ANY WARRANTY; without even the implied warranty of
   MERCHANTABILITY or FITNESS FOR A PARTICULAR PURPOSE.  See the
   GNU Lesser General Public License for more details.
   
   Cite this work as:
   * C. Bannwarth, E. Caldeweyher, S. Ehlert, A. Hansen, P. Pracht,
     J. Seibert, S. Spicher, S. Grimme, WIREs Comput. Mol. Sci., 2020, 11,
     e01493. DOI: 10.1002/wcms.1493
   
   for GFN2-xTB:
   * C. Bannwarth, S. Ehlert and S. Grimme., J. Chem. Theory Comput., 2019,
     15, 1652-1671. DOI: 10.1021/acs.jctc.8b01176
   for GFN1-xTB:
   * S. Grimme, C. Bannwarth, P. Shushkov, J. Chem. Theory Comput., 2017,
     13, 1989-2009. DOI: 10.1021/acs.jctc.7b00118
   for GFN0-xTB:
   * P. Pracht, E. Caldeweyher, S. Ehlert, S. Grimme, ChemRxiv, 2019, preprint.
     DOI: 10.26434/chemrxiv.8326202.v1
   for GFN-FF:
   * S. Spicher and S. Grimme, Angew. Chem. Int. Ed., 2020, 59, 15665-15673.
     DOI: 10.1002/anie.202004239
   
   for ALPB and GBSA implicit solvation:
   * S. Ehlert, M. Stahn, S. Spicher, S. Grimme, J. Chem. Theory Comput.,
     2021, 17, 4250-4261. DOI: 10.1021/acs.jctc.1c00471
   
   for ddCOSMO and CPCM-X implicit solvation:
   * M. Stahn, S. Ehlert, S. Grimme, J. Phys. Chem. A,
     2023, XX, XXXX-XXXX. DOI: 10.1021/acs.jpca.3c04382
   
   for DFT-D4:
   * E. Caldeweyher, C. Bannwarth and S. Grimme, J. Chem. Phys., 2017,
     147, 034112. DOI: 10.1063/1.4993215
   * E. Caldeweyher, S. Ehlert, A. Hansen, H. Neugebauer, S. Spicher,
     C. Bannwarth and S. Grimme, J. Chem. Phys., 2019, 150, 154122.
     DOI: 10.1063/1.5090222
   * E. Caldeweyher, J.-M. Mewes, S. Ehlert and S. Grimme, Phys. Chem. Chem. Phys.
     2020, 22, 8499-8512. DOI: 10.1039/D0CP00502A
   
   for sTDA-xTB:
   * S. Grimme and C. Bannwarth, J. Chem. Phys., 2016, 145, 054103.
     DOI: 10.1063/1.4959605
   
   in the mass-spec context:
   * V. Asgeirsson, C. Bauer and S. Grimme, Chem. Sci., 2017, 8, 4879.
     DOI: 10.1039/c7sc00601b
   * J. Koopman and S. Grimme, ACS Omega 2019, 4, 12, 15120-15133.
     DOI: 10.1021/acsomega.9b02011
   
   for metadynamics refer to:
   * S. Grimme, J. Chem. Theory Comput., 2019, 155, 2847-2862
     DOI: 10.1021/acs.jctc.9b00143
   
   for SPH calculations refer to:
   * S. Spicher and S. Grimme, J. Chem. Theory Comput., 2021, 17, 1701-1714
     DOI: 10.1021/acs.jctc.0c01306
   
   for ONIOM refer to:
   * C. Plett, A. Katbashev, S. Ehlert, S. Grimme, M. Bursch,
     Phys. Chem. Chem. Phys., 2023, 25, 17860-17868. DOI: 10.1039/D3CP02178E
   
   for DIPRO refer to:
   * J. Kohn, N. Gildemeister, S. Grimme, D. Fazzi, A. Hansen,
     J. Chem. Phys., 2023, just accepted.
   
   for PTB refer to:
   * S. Grimme, M. Mueller, A. Hansen, J. Chem. Phys., 2023, 158, 124111.
     DOI: 10.1063/5.0137838
   
   with help from (in alphabetical order)
   P. Atkinson, C. Bannwarth, F. Bohle, G. Brandenburg, E. Caldeweyher
   M. Checinski, S. Dohm, S. Ehlert, S. Ehrlich, I. Gerasimov, C. Hölzer
   A. Katbashev, J. Kohn, J. Koopman, C. Lavigne, S. Lehtola, F. März, M. Müller,
   F. Musil, H. Neugebauer, J. Pisarek, C. Plett, P. Pracht, F. Pultar,
   J. Seibert, P. Shushkov, S. Spicher, M. Stahn, M. Steiner, T. Strunk,
   J. Stückrath, T. Rose, and J. Unsleber
   
 * started run on 2025/08/14 at 10:45:48.421     
   ID    Z sym.   atoms
    1    6 C      1, 2, 6, 9, 12, 15
    2    1 H      3, 4, 7, 8, 10, 11, 13, 14, 16, 19-21, 23, 24
    3    7 N      5, 17
    4    8 O      18, 22

           -------------------------------------------------
          |                Calculation Setup                |
           -------------------------------------------------

          program call               : otool_xtb k_XTB.xyz --grad -c 0 -u 0 -P 1 --namespace k --input k_XTB.input.tmp --acc 0.200000
          calculation namespace      : k
          coordinate file            : k_XTB.xyz
          omp threads                :                     1


           -------------------------------------------------
          |                 G F N 2 - x T B                 |
           -------------------------------------------------

        Reference                      10.1021/acs.jctc.8b01176
      * Hamiltonian:
        H0-scaling (s, p, d)           1.850000    2.230000    2.230000
        zeta-weighting                 0.500000
      * Dispersion:
        s8                             2.700000
        a1                             0.520000
        a2                             5.000000
        s9                             5.000000
      * Repulsion:
        kExp                           1.500000    1.000000
        rExp                           1.000000
      * Coulomb:
        alpha                          2.000000
        third order                    shell-resolved
        anisotropic                    true
        a3                             3.000000
        a5                             4.000000
        cn-shift                       1.200000
        cn-exp                         4.000000
        max-rad                        5.000000

q/qsh data taken from xtbrestart
CAMM data taken from xtbrestart

          ...................................................
          :                      SETUP                      :
          :.................................................:
          :  # basis functions                  54          :
          :  # atomic orbitals                  54          :
          :  # shells                           34          :
          :  # electrons                        60          :
          :  max. iterations                   250          :
          :  Hamiltonian                  GFN2-xTB          :
          :  restarted?                       true          :
          :  GBSA solvation                  false          :
          :  PC potential                    false          :
          :  electronic temp.          300.0000000     K    :
          :  accuracy                    0.2000000          :
          :  -> integral cutoff          0.3198970E+02      :
          :  -> integral neglect         0.2000000E-08      :
          :  -> SCF convergence          0.2000000E-06 Eh   :
          :  -> wf. convergence          0.2000000E-04 e    :
          :  Broyden damping             0.4000000          :
          :  net charge                          0          :
          :  unpaired electrons                  0          :
          ...................................................

 iter      E             dE          RMSdq      gap      omega  full diag
   1    -34.3085194 -0.343085E+02  0.330E-01    3.45       0.0  T
   2    -34.3087358 -0.216462E-03  0.201E-01    3.34       1.0  T
   3    -34.3087183  0.174899E-04  0.875E-02    3.36       1.0  T
   4    -34.3087815 -0.631914E-04  0.113E-02    3.32       1.8  T
   5    -34.3087818 -0.235820E-06  0.600E-03    3.32       3.4  T
   6    -34.3087818 -0.552094E-07  0.219E-03    3.33       9.3  T
   7    -34.3087818 -0.151756E-07  0.684E-04    3.33      29.8  T
   8    -34.3087818 -0.128397E-08  0.192E-04    3.32     106.4  T
   9    -34.3087818 -0.902460E-10  0.554E-05    3.32     368.5  T

   *** convergence criteria satisfied after 9 iterations ***

         #    Occupation            Energy/Eh            Energy/eV
      -------------------------------------------------------------
         1        2.0000           -0.7494705             -20.3941
       ...           ...                  ...                  ...
        24        2.0000           -0.4566653             -12.4265
        25        2.0000           -0.4541559             -12.3582
        26        2.0000           -0.4450253             -12.1098
        27        2.0000           -0.4359232             -11.8621
        28        2.0000           -0.4209453             -11.4545
        29        2.0000           -0.3985277             -10.8445
        30        2.0000           -0.3697379             -10.0611 (HOMO)
        31                         -0.2475582              -6.7364 (LUMO)
        32                          0.0019886               0.0541
        33                          0.0216765               0.5898
        34                          0.0515947               1.4040
        35                          0.0519167               1.4127
       ...                                ...                  ...
        54                          0.6087962              16.5662
      -------------------------------------------------------------
                  HL-Gap            0.1221796 Eh            3.3247 eV
             Fermi-level           -0.3086481 Eh           -8.3987 eV

 SCC (total)                   0 d,  0 h,  0 min,  0.015 sec
 SCC setup                      ...        0 min,  0.000 sec (  0.634%)
 Dispersion                     ...        0 min,  0.000 sec (  0.486%)
 classical contributions        ...        0 min,  0.000 sec (  0.103%)
 integral evaluation            ...        0 min,  0.001 sec (  6.824%)
 iterations                     ...        0 min,  0.010 sec ( 64.631%)
 molecular gradient             ...        0 min,  0.004 sec ( 26.914%)
 printout                       ...        0 min,  0.000 sec (  0.363%)

         :::::::::::::::::::::::::::::::::::::::::::::::::::::
         ::                     SUMMARY                     ::
         :::::::::::::::::::::::::::::::::::::::::::::::::::::
         :: total energy             -33.939951772403 Eh    ::
         :: gradient norm              0.041322536938 Eh/a0 ::
         :: HOMO-LUMO gap              3.324677138838 eV    ::
         ::.................................................::
         :: SCC energy               -34.308836595896 Eh    ::
         :: -> isotropic ES            0.069275028621 Eh    ::
         :: -> anisotropic ES          0.006405342360 Eh    ::
         :: -> anisotropic XC          0.016766553320 Eh    ::
         :: -> dispersion             -0.015692055526 Eh    ::
         :: repulsion energy           0.368884823493 Eh    ::
         :: add. restraining           0.000000000000 Eh    ::
         :: total charge              -0.000000000000 e     ::
         :::::::::::::::::::::::::::::::::::::::::::::::::::::


Property printout bound to 'properties.out'

           -------------------------------------------------
          | TOTAL ENERGY              -33.939951772403 Eh   |
          | GRADIENT NORM               0.041322536938 Eh/α |
          | HOMO-LUMO GAP               3.324677138838 eV   |
           -------------------------------------------------

------------------------------------------------------------------------
 * finished run on 2025/08/14 at 10:45:48.445     
------------------------------------------------------------------------
 total:
 * wall-time:     0 d,  0 h,  0 min,  0.024 sec
 *  cpu-time:     0 d,  0 h,  0 min,  0.016 sec
 * ratio c/w:     0.656 speedup
 SCF:
 * wall-time:     0 d,  0 h,  0 min,  0.015 sec
 *  cpu-time:     0 d,  0 h,  0 min,  0.011 sec
 * ratio c/w:     0.729 speedup


-------------------------   --------------------
FINAL SINGLE POINT ENERGY       -33.939951772400
-------------------------   --------------------


-------------
DIPOLE MOMENT
-------------
                                X             Y             Z
Total Dipole Moment    :     -0.90800      -1.30800       0.23400
                        -----------------------------------------
Magnitude (a.u.)       :      1.60937
Magnitude (Debye)      :      4.09070


------------------
CARTESIAN GRADIENT
------------------

   1   C   :    0.005029240   -0.002179863    0.002853322
   2   C   :   -0.002148499    0.000319926   -0.000324993
   3   H   :   -0.000094794   -0.000236413   -0.000577907
   4   H   :   -0.000029714   -0.000588567   -0.001504249
   5   N   :   -0.001921786    0.001408399   -0.000380187
   6   C   :   -0.000622233   -0.000441200    0.000368442
   7   H   :    0.000328033    0.000657329    0.000209976
   8   H   :    0.001267358    0.000601550   -0.000125080
   9   C   :   -0.000732049   -0.004000964    0.001331323
  10   H   :    0.000068394   -0.000061735    0.000063751
  11   H   :    0.000008779   -0.000366820    0.000037306
  12   C   :    0.003979962    0.013592166   -0.008289857
  13   H   :   -0.002227599    0.000213180   -0.000297681
  14   H   :   -0.000810208    0.000247906   -0.000084463
  15   C   :    0.007891777   -0.018545115    0.007746310
  16   H   :   -0.002193592    0.002019258    0.001062675
  17   N   :   -0.004399032   -0.013405627    0.003515040
  18   O   :    0.006654740   -0.009252018   -0.002588457
  19   H   :   -0.002881026    0.001363242    0.000088039
  20   H   :    0.000882455   -0.000506794   -0.000572876
  21   H   :    0.001278705    0.005212360    0.002175577
  22   O   :   -0.010094449    0.019017780   -0.002299659
  23   H   :   -0.000073128    0.000969558   -0.000740436
  24   H   :    0.000838669    0.003962465   -0.001665916

Difference to translation invariance:
           :    0.0000000000   -0.0000000000    0.0000000000

Difference to rotation invariance:
           :   -0.0000003484   -0.0000001410   -0.0000002192

Norm of the Cartesian gradient     ...    0.0413225369
RMS gradient                       ...    0.0048699077
MAX gradient                       ...    0.0190177797
------------------------------------------------------------------------------
                         ORCA GEOMETRY RELAXATION STEP
------------------------------------------------------------------------------

Reading the OPT-File                    .... done
Getting information on internals        .... done
Copying old internal coords+grads       .... done
Making the new internal coordinates     .... (2022 redundants) done
Validating the new internal coordinates .... (2022 redundants) done
Calculating the B-matrix                .... done
Calculating the G,G- and P matrices     .... done
Transforming gradient to internals      .... done
Projecting the internal gradient        .... done
Number of atoms                         ....  24
Number of internal coordinates          .... 106
Current Energy                          ....   -33.939951772 Eh
Current gradient norm                   ....     0.041322537 Eh/bohr
Maximum allowed component of the step   ....  0.300
Current trust radius                    ....  0.300
Updating the Hessian (BFGS)             .... done
Forming the augmented Hessian           .... done
Diagonalizing the augmented Hessian     .... done
Last element of RFO vector              ....  0.944498981
Lowest eigenvalues of augmented Hessian:
 -0.005739052  0.010044760  0.010217302  0.010709932  0.010993403
Length of the computed step             ....  0.347818634
Warning: the length of the step is outside the trust region - taking restricted step instead
The input lambda is                     ....     0.008971
   iter:   5  x=   -0.001833  g=   57.789718 f(x)=     0.235162
   iter:  10  x=   -0.009465  g=    6.386719 f(x)=     0.000000
The output lambda is                    ....    -0.009465 (12 iterations)
The final length of the internal step   ....  0.300000000
Converting the step to Cartesian space:
 Initial RMS(Int)=    0.0291385759
Transforming coordinates:
 Iter   0:  RMS(Cart)=    0.0498905476 RMS(Int)=    0.0293231700
 Iter   5:  RMS(Cart)=    0.0000002755 RMS(Int)=    0.0000002134
done
Storing new coordinates                 .... done
The predicted energy change is          ....    -0.003101431
Previously predicted energy change      ....    -0.010302219
Actually observed energy change         ....    -0.012536166
Ratio of predicted to observed change   ....     1.216841244
New trust radius                        ....     0.450000000

                                .--------------------.
          ----------------------|Geometry convergence|-------------------------
          Item                value                   Tolerance       Converged
          ---------------------------------------------------------------------
          Energy change      -0.0125361656            0.0000050000      NO
          RMS gradient        0.0031433279            0.0001000000      NO
          MAX gradient        0.0188499491            0.0003000000      NO
          RMS step            0.0291385759            0.0020000000      NO
          MAX step            0.1237355385            0.0040000000      NO
          -------------------------------------------------------------------------
          ........................................................
          Max(Bonds)      0.0222      Max(Angles)    2.93
          Max(Dihed)        7.09      Max(Improp)    0.00
          ---------------------------------------------------------------------

    ---------------------------------------------------------------------------
                         Redundant Internal Coordinates
                            (Angstroem and degrees)

        Definition                    Value    dE/dq     Step     New-Value
    ----------------------------------------------------------------------------
     1. B(C   1,C   0)                1.5235 -0.000476  0.0003    1.5237   
     2. B(N   4,H   2)                1.0160  0.000321 -0.0011    1.0150   
     3. B(N   4,H   3)                1.0152  0.000423 -0.0011    1.0141   
     4. B(N   4,C   0)                1.4620  0.001926 -0.0029    1.4590   
     5. B(C   5,C   1)                1.5273  0.000179 -0.0011    1.5262   
     6. B(H   6,C   1)                1.0929  0.000186 -0.0011    1.0919   
     7. B(H   7,C   1)                1.0915  0.000365 -0.0016    1.0899   
     8. B(C   8,C   5)                1.5283  0.000124 -0.0014    1.5269   
     9. B(H   9,C   5)                1.0928  0.000086 -0.0006    1.0922   
    10. B(H  10,C   5)                1.0932  0.000208 -0.0010    1.0922   
    11. B(C  11,C   8)                1.5288  0.001011 -0.0054    1.5235   
    12. B(H  12,C   8)                1.0922  0.000446 -0.0018    1.0905   
    13. B(H  13,C   8)                1.0928  0.000018 -0.0009    1.0920   
    14. B(C  14,C  11)                1.5243 -0.001971  0.0033    1.5277   
    15. B(N  16,C  11)                1.4923  0.005216 -0.0090    1.4833   
    16. B(N  16,H  15)                2.2855 -0.000228 -0.0164    2.2691   
    17. B(O  17,H  15)                0.9691 -0.000882  0.0005    0.9696   
    18. B(O  17,C  14)                1.3455  0.008156 -0.0160    1.3295   
    19. B(H  18,C   0)                1.1031 -0.000749  0.0027    1.1058   
    20. B(H  19,C   0)                1.0932 -0.000231  0.0002    1.0934   
    21. B(H  20,N  16)                1.0156  0.000712 -0.0011    1.0145   
    22. B(O  21,C  14)                1.2084  0.018850 -0.0222    1.1861   
    23. B(H  22,C  11)                1.1032 -0.000127  0.0010    1.1043   
    24. B(H  23,N  16)                1.0230  0.001806 -0.0039    1.0191   
    25. A(C   1,C   0,H  19)          109.84 -0.000763   -0.19    109.65   
    26. A(C   1,C   0,N   4)          110.44  0.001087   -0.29    110.15   
    27. A(N   4,C   0,H  18)          111.13 -0.003610    1.64    112.77   
    28. A(C   1,C   0,H  18)          109.58  0.001457   -0.30    109.28   
    29. A(H  18,C   0,H  19)          107.74  0.000247   -0.04    107.70   
    30. A(N   4,C   0,H  19)          108.05  0.001557   -0.81    107.24   
    31. A(C   5,C   1,H   6)          109.43  0.000415   -0.00    109.43   
    32. A(C   5,C   1,H   7)          109.72 -0.000765    0.20    109.92   
    33. A(C   0,C   1,H   6)          109.53  0.000920   -0.25    109.28   
    34. A(C   0,C   1,C   5)          111.41 -0.002109    0.51    111.91   
    35. A(H   6,C   1,H   7)          107.28 -0.000218    0.14    107.41   
    36. A(C   0,C   1,H   7)          109.39  0.001834   -0.61    108.78   
    37. A(C   0,N   4,H   3)          109.62 -0.001145    0.49    110.12   
    38. A(C   0,N   4,H   2)          109.31 -0.000493    0.30    109.61   
    39. A(H   2,N   4,H   3)          106.98 -0.000228    0.49    107.47   
    40. A(C   8,C   5,H  10)          109.26  0.000240   -0.05    109.21   
    41. A(C   1,C   5,H  10)          109.48  0.000153   -0.01    109.47   
    42. A(C   8,C   5,H   9)          110.66  0.000154   -0.03    110.63   
    43. A(C   1,C   5,H   9)          108.95  0.000420   -0.12    108.83   
    44. A(C   1,C   5,C   8)          111.17 -0.000764    0.15    111.32   
    45. A(H   9,C   5,H  10)          107.24 -0.000180    0.06    107.29   
    46. A(H  12,C   8,H  13)          107.07 -0.000298   -0.04    107.03   
    47. A(C  11,C   8,H  12)          108.93  0.001515   -0.60    108.32   
    48. A(C  11,C   8,H  13)          109.79  0.001232   -0.36    109.43   
    49. A(C   5,C   8,H  13)          109.86 -0.000631    0.36    110.23   
    50. A(C   5,C   8,H  12)          108.50 -0.001392    0.57    109.07   
    51. A(C   5,C   8,C  11)          112.53 -0.000434    0.07    112.60   
    52. A(C  14,C  11,N  16)          107.03 -0.001830    0.74    107.77   
    53. A(C   8,C  11,N  16)          113.25 -0.004366    1.43    114.69   
    54. A(C   8,C  11,C  14)          114.51  0.006777   -2.55    111.97   
    55. A(N  16,C  11,H  22)          107.08  0.002141   -0.34    106.73   
    56. A(C  14,C  11,H  22)          106.92 -0.000618   -0.04    106.88   
    57. A(C   8,C  11,H  22)          107.63 -0.002100    0.81    108.44   
    58. A(C  11,C  14,O  17)          113.40  0.000774   -0.31    113.09   
    59. A(O  17,C  14,O  21)          125.15  0.011767   -2.93    122.22   
    60. A(C  11,C  14,O  21)          121.44 -0.012565    2.36    123.80   
    61. A(H  20,N  16,H  23)          103.67  0.000141    1.35    105.02   
    62. A(C  11,N  16,H  23)          106.36 -0.007498    2.72    109.08   
    63. A(C  11,N  16,H  20)          108.61 -0.001441    0.84    109.45   
    64. A(C  14,O  17,H  15)          108.39 -0.004932    1.26    109.65   
    65. D(H   6,C   1,C   0,H  19)   -179.14 -0.000409   -0.17   -179.31   
    66. D(H   6,C   1,C   0,N   4)    -60.06  0.001708   -1.48    -61.55   
    67. D(C   5,C   1,C   0,N   4)    178.73  0.001942   -1.65    177.08   
    68. D(C   5,C   1,C   0,H  18)    -58.53 -0.000893    0.02    -58.51   
    69. D(H   6,C   1,C   0,H  18)     62.68 -0.001128    0.18     62.86   
    70. D(C   5,C   1,C   0,H  19)     59.65 -0.000174   -0.33     59.32   
    71. D(H   2,N   4,C   0,C   1)     55.75  0.000065    0.96     56.71   
    72. D(H   3,N   4,C   0,H  18)     50.88 -0.001299    1.47     52.35   
    73. D(H   3,N   4,C   0,C   1)    172.72 -0.001154    1.99    174.70   
    74. D(H   2,N   4,C   0,H  19)    175.91  0.000743    0.02    175.94   
    75. D(H   2,N   4,C   0,H  18)    -66.08 -0.000080    0.44    -65.65   
    76. D(H   9,C   5,C   1,C   0)    -59.24 -0.000163    0.21    -59.03   
    77. D(C   8,C   5,C   1,H   6)     57.28 -0.000204    0.22     57.51   
    78. D(C   8,C   5,C   1,C   0)    178.55 -0.000142    0.24    178.79   
[...]
		      222     2.964	     1       0.04      96.89
		      223     2.992	     1       0.04      96.93
		      224     2.999	     1       0.04      96.96
		      225     3.007	     1       0.04      97.00
		      226     3.007	     1       0.04      97.04
		      227     3.027	     1       0.04      97.07
		      228     3.028	     1       0.04      97.11
		      229     3.049	     1       0.03      97.14
		      230     3.052	     1       0.03      97.17
		      231     3.054	     1       0.03      97.21
		      232     3.063	     1       0.03      97.24
		      233     3.064	     1       0.03      97.28
		      234     3.067	     1       0.03      97.31
		      235     3.069	     1       0.03      97.34
		      236     3.071	     1       0.03      97.37
		      237     3.084	     1       0.03      97.41
		      238     3.105	     1       0.03      97.44
		      239     3.114	     1       0.03      97.47
		      240     3.120	     1       0.03      97.50
		      241     3.125	     1       0.03      97.53
		      242     3.130	     1       0.03      97.56
		      243     3.138	     1       0.03      97.59
		      244     3.144	     1       0.03      97.62
		      245     3.145	     1       0.03      97.65
		      246     3.160	     1       0.03      97.67
		      247     3.172	     1       0.03      97.70
		      248     3.183	     1       0.03      97.73
		      249     3.187	     1       0.03      97.76
		      250     3.211	     1       0.03      97.78
		      251     3.221	     1       0.03      97.81
		      252     3.230	     1       0.03      97.83
		      253     3.239	     1       0.02      97.86
		      254     3.251	     1       0.02      97.88
		      255     3.252	     1       0.02      97.91
		      256     3.252	     1       0.02      97.93
		      257     3.255	     1       0.02      97.95
		      258     3.275	     1       0.02      97.98
		      259     3.275	     1       0.02      98.00
		      260     3.280	     1       0.02      98.02
		      261     3.283	     1       0.02      98.05
		      262     3.286	     1       0.02      98.07
		      263     3.290	     1       0.02      98.09
		      264     3.294	     1       0.02      98.12
		      265     3.303	     1       0.02      98.14
		      266     3.335	     1       0.02      98.16
		      267     3.335	     1       0.02      98.18
		      268     3.335	     1       0.02      98.20
		      269     3.336	     1       0.02      98.22
		      270     3.336	     1       0.02      98.24
		      271     3.337	     1       0.02      98.26
		      272     3.340	     1       0.02      98.28
		      273     3.348	     1       0.02      98.31
		      274     3.348	     1       0.02      98.33
		      275     3.353	     1       0.02      98.35
		      276     3.388	     1       0.02      98.37
		      277     3.395	     1       0.02      98.38
		      278     3.396	     1       0.02      98.40
		      279     3.397	     1       0.02      98.42
		      280     3.399	     1       0.02      98.44
		      281     3.403	     1       0.02      98.46
		      282     3.412	     1       0.02      98.48
		      283     3.422	     1       0.02      98.50
		      284     3.438	     1       0.02      98.51
		      285     3.441	     1       0.02      98.53
		      286     3.467	     1       0.02      98.55
		      287     3.483	     1       0.02      98.57
		      288     3.485	     1       0.02      98.58
		      289     3.492	     1       0.02      98.60
		      290     3.494	     1       0.02      98.61
		      291     3.495	     1       0.02      98.63
		      292     3.502	     1       0.02      98.65
		      293     3.511	     1       0.02      98.66
		      294     3.514	     1       0.02      98.68
		      295     3.518	     1       0.02      98.69
		      296     3.522	     1       0.02      98.71
		      297     3.525	     1       0.02      98.72
		      298     3.526	     1       0.02      98.74
		      299     3.528	     1       0.02      98.75
		      300     3.545	     1       0.01      98.77
		      301     3.564	     1       0.01      98.78
		      302     3.576	     1       0.01      98.80
		      303     3.577	     1       0.01      98.81
		      304     3.593	     1       0.01      98.82
		      305     3.606	     1       0.01      98.84
		      306     3.610	     1       0.01      98.85
		      307     3.612	     1       0.01      98.86
		      308     3.613	     1       0.01      98.88
		      309     3.619	     1       0.01      98.89
		      310     3.622	     1       0.01      98.90
		      311     3.622	     1       0.01      98.92
		      312     3.632	     1       0.01      98.93
		      313     3.639	     1       0.01      98.94
		      314     3.641	     1       0.01      98.95
		      315     3.649	     1       0.01      98.97
		      316     3.651	     1       0.01      98.98
		      317     3.654	     1       0.01      98.99
		      318     3.654	     1       0.01      99.00
		      319     3.656	     1       0.01      99.02
		      320     3.661	     1       0.01      99.03
		      321     3.665	     1       0.01      99.04
		      322     3.667	     1       0.01      99.05
		      323     3.673	     1       0.01      99.06
		      324     3.676	     1       0.01      99.08
		      325     3.676	     1       0.01      99.09
		      326     3.676	     1       0.01      99.10
		      327     3.682	     1       0.01      99.11
		      328     3.682	     1       0.01      99.12
		      329     3.686	     1       0.01      99.13
		      330     3.696	     1       0.01      99.15
		      331     3.700	     1       0.01      99.16
		      332     3.709	     1       0.01      99.17
		      333     3.724	     1       0.01      99.18
		      334     3.725	     1       0.01      99.19
		      335     3.745	     1       0.01      99.20
		      336     3.758	     1       0.01      99.21
		      337     3.759	     1       0.01      99.22
		      338     3.762	     1       0.01      99.23
		      339     3.766	     1       0.01      99.24
		      340     3.773	     1       0.01      99.25
		      341     3.774	     1       0.01      99.26
		      342     3.775	     1       0.01      99.27
		      343     3.796	     1       0.01      99.28
		      344     3.802	     1       0.01      99.29
		      345     3.803	     1       0.01      99.30
		      346     3.806	     1       0.01      99.31
		      347     3.813	     1       0.01      99.32
		      348     3.815	     1       0.01      99.33
		      349     3.821	     1       0.01      99.34
		      350     3.829	     1       0.01      99.35
		      351     3.830	     1       0.01      99.36
		      352     3.837	     1       0.01      99.37
		      353     3.847	     1       0.01      99.37
		      354     3.847	     1       0.01      99.38
		      355     3.854	     1       0.01      99.39
		      356     3.872	     1       0.01      99.40
		      357     3.877	     1       0.01      99.41
		      358     3.892	     1       0.01      99.42
		      359     3.892	     1       0.01      99.43
		      360     3.893	     1       0.01      99.43
		      361     3.898	     1       0.01      99.44
		      362     3.899	     1       0.01      99.45
		      363     3.900	     1       0.01      99.46
		      364     3.900	     1       0.01      99.47
		      365     3.903	     1       0.01      99.47
		      366     3.914	     1       0.01      99.48
		      367     3.917	     1       0.01      99.49
		      368     3.927	     1       0.01      99.50
		      369     3.928	     1       0.01      99.51
		      370     3.933	     1       0.01      99.51
		      371     3.944	     1       0.01      99.52
		      372     3.945	     1       0.01      99.53
		      373     3.958	     1       0.01      99.54
		      374     3.961	     1       0.01      99.54
		      375     3.963	     1       0.01      99.55
		      376     3.972	     1       0.01      99.56
		      377     3.983	     1       0.01      99.56
		      378     3.995	     1       0.01      99.57
		      379     3.997	     1       0.01      99.58
		      380     4.016	     1       0.01      99.59
		      381     4.021	     1       0.01      99.59
		      382     4.026	     1       0.01      99.60
		      383     4.037	     1       0.01      99.60
		      384     4.040	     1       0.01      99.61
		      385     4.043	     1       0.01      99.62
		      386     4.046	     1       0.01      99.62
		      387     4.051	     1       0.01      99.63
		      388     4.062	     1       0.01      99.64
		      389     4.074	     1       0.01      99.64
		      390     4.085	     1       0.01      99.65
		      391     4.094	     1       0.01      99.65
		      392     4.097	     1       0.01      99.66
		      393     4.102	     1       0.01      99.67
		      394     4.103	     1       0.01      99.67
		      395     4.137	     1       0.01      99.68
		      396     4.137	     1       0.01      99.68
		      397     4.138	     1       0.01      99.69
		      398     4.140	     1       0.01      99.69
		      399     4.147	     1       0.01      99.70
		      400     4.151	     1       0.01      99.70
		      401     4.156	     1       0.01      99.71
		      402     4.156	     1       0.01      99.71
		      403     4.156	     1       0.01      99.72
		      404     4.174	     1       0.01      99.73
		      405     4.176	     1       0.01      99.73
		      406     4.188	     1       0.00      99.74
		      407     4.197	     1       0.00      99.74
		      408     4.216	     1       0.00      99.74
		      409     4.232	     1       0.00      99.75
		      410     4.256	     1       0.00      99.75
		      411     4.261	     1       0.00      99.76
		      412     4.272	     1       0.00      99.76
		      413     4.280	     1       0.00      99.77
		      414     4.283	     1       0.00      99.77
		      415     4.285	     1       0.00      99.78
		      416     4.289	     1       0.00      99.78
		      417     4.295	     1       0.00      99.78
		      418     4.303	     1       0.00      99.79
		      419     4.306	     1       0.00      99.79
		      420     4.312	     1       0.00      99.80
		      421     4.315	     1       0.00      99.80
		      422     4.316	     1       0.00      99.80
		      423     4.324	     1       0.00      99.81
		      424     4.325	     1       0.00      99.81
		      425     4.328	     1       0.00      99.82
		      426     4.353	     1       0.00      99.82
		      427     4.369	     1       0.00      99.82
		      428     4.370	     1       0.00      99.83
		      429     4.371	     1       0.00      99.83
		      430     4.377	     1       0.00      99.83
		      431     4.384	     1       0.00      99.84
		      432     4.387	     1       0.00      99.84
		      433     4.391	     1       0.00      99.85
		      434     4.401	     1       0.00      99.85
		      435     4.410	     1       0.00      99.85
		      436     4.429	     1       0.00      99.86
		      437     4.430	     1       0.00      99.86
		      438     4.431	     1       0.00      99.86
		      439     4.433	     1       0.00      99.87
		      440     4.435	     1       0.00      99.87
		      441     4.466	     1       0.00      99.87
		      442     4.481	     1       0.00      99.87
		      443     4.490	     1       0.00      99.88
		      444     4.492	     1       0.00      99.88
		      445     4.504	     1       0.00      99.88
		      446     4.508	     1       0.00      99.89
		      447     4.516	     1       0.00      99.89
		      448     4.516	     1       0.00      99.89
		      449     4.523	     1       0.00      99.90
		      450     4.527	     1       0.00      99.90
		      451     4.531	     1       0.00      99.90
		      452     4.532	     1       0.00      99.90
		      453     4.551	     1       0.00      99.91
		      454     4.560	     1       0.00      99.91
		      455     4.566	     1       0.00      99.91
		      456     4.615	     1       0.00      99.91
		      457     4.633	     1       0.00      99.92
		      458     4.648	     1       0.00      99.92
		      459     4.660	     1       0.00      99.92
		      460     4.662	     1       0.00      99.92
		      461     4.669	     1       0.00      99.93
		      462     4.680	     1       0.00      99.93
		      463     4.722	     1       0.00      99.93
		      464     4.729	     1       0.00      99.93
		      465     4.735	     1       0.00      99.93
		      466     4.752	     1       0.00      99.94
		      467     4.772	     1       0.00      99.94
		      468     4.780	     1       0.00      99.94
		      469     4.795	     1       0.00      99.94
		      470     4.803	     1       0.00      99.94
		      471     4.813	     1       0.00      99.94
		      472     4.817	     1       0.00      99.95
		      473     4.824	     1       0.00      99.95
		      474     4.826	     1       0.00      99.95
		      475     4.841	     1       0.00      99.95
		      476     4.852	     1       0.00      99.95
		      477     4.853	     1       0.00      99.95
		      478     4.854	     1       0.00      99.96
		      479     4.888	     1       0.00      99.96
		      480     4.910	     1       0.00      99.96
		      481     4.916	     1       0.00      99.96
		      482     4.946	     1       0.00      99.96
		      483     4.963	     1       0.00      99.96
		      484     4.966	     1       0.00      99.96
		      485     4.975	     1       0.00      99.97
		      486     4.981	     1       0.00      99.97
		      487     4.998	     1       0.00      99.97
		      488     5.003	     1       0.00      99.97
		      489     5.008	     1       0.00      99.97
		      490     5.018	     1       0.00      99.97
		      491     5.034	     1       0.00      99.97
		      492     5.042	     1       0.00      99.97
		      493     5.048	     1       0.00      99.98
		      494     5.084	     1       0.00      99.98
		      495     5.100	     1       0.00      99.98
		      496     5.110	     1       0.00      99.98
		      497     5.128	     1       0.00      99.98
		      498     5.131	     1       0.00      99.98
		      499     5.148	     1       0.00      99.98
		      500     5.152	     1       0.00      99.98
		      501     5.183	     1       0.00      99.98
		      502     5.188	     1       0.00      99.98
		      503     5.202	     1       0.00      99.99
		      504     5.205	     1       0.00      99.99
		      505     5.208	     1       0.00      99.99
		      506     5.232	     1       0.00      99.99
		      507     5.236	     1       0.00      99.99
		      508     5.236	     1       0.00      99.99
		      509     5.238	     1       0.00      99.99
		      510     5.257	     1       0.00      99.99
		      511     5.259	     1       0.00      99.99
		      512     5.322	     1       0.00      99.99
		      513     5.330	     1       0.00      99.99
		      514     5.342	     1       0.00      99.99
		      515     5.386	     1       0.00     100.00
		      516     5.538	     1       0.00     100.00
		      517     5.554	     1       0.00     100.00
		      518     5.581	     1       0.00     100.00
		      519     5.612	     1       0.00     100.00
		      520     5.695	     1       0.00     100.00
		      521     5.734	     1       0.00     100.00
		      522     5.790	     1       0.00     100.00
		      523     5.791	     1       0.00     100.00
		      524     5.827	     1       0.00     100.00
		      525     5.884	     1       0.00     100.00
		      526     5.895	     1       0.00     100.00
		      527     5.969	     1       0.00     100.00

		Conformers below 3 kcal/mol: 225
		Lowest energy conformer    : -33.956945 Eh
		Sconf at 298.15 K          :  9.56 cal/(molK)
		Gconf at 298.15 K          : -1.68 kcal/mol

		Writing final ensemble to k.finalensemble.xyz

--------------------------------
SUGGESTED CITATIONS FOR THIS RUN
--------------------------------

Below you find a list of papers that are relevant to this ORCA run
We neither can nor want to force you to cite these papers, but we appreciate if you do
You receive ORCA, which is the product of decades of hard work by many enthusiastic individuals, for free
The only thing we kindly ask in return is that you cite our papers,
We deeply appreciate it, if you show your appreciation for ORCA by not just citing the generic ORCA reference.

Please note that relegating all ORCA citations to the supporting information does *not* help us.
SI sections are not indexed - citations you put there will not count into any citation statistics
But we need these citations in order to attract the funding resources that allow us to do what we are doing

Therefore, if you are a happy ORCA user, please consider citing a few of the papers listed below in the main body of your paper

In addition to the list printed below, the program has created the file k.bibtex that contains the list in bibtex format
You can import this file easily into all common literature databanks and citation aid programs


List of essential papers. We consider these as the minimum necessary citations

  1. Bannwarth, C.; Ehlert, S.; Grimme, S.
     GFN2-xTB—An Accurate and Broadly Parametrized Self-Consistent Tight-Binding Quantum Chemical Method with Multipole Electrostatics and Density-Dependent Dispersion Contributions
     J. Chem. Theory Comput. 2019 15(3), 1652-1671
     doi.org/10.1021/acs.jctc.8b01176
  2. Neese, F.
     Software update: the ORCA program system, version 6.0
     WIRES Comput. Molec. Sci. 2025 15(1), e70019
     doi.org/10.1002/wcms.7019
  3. de Souza, B.
     GOAT: A Global Optimization Algorithm for Molecules and Atomic Clusters
     Angewandte Chemie 2025 64(18), e202500393
     doi.org/10.1002/anie.202500393

List of papers to cite with high priority. The work reported in these papers was absolutely
necessary for this run to complete.
Our perspective: the developers of density functionals and basis sets usually get cited in chemistry papers
Good! But without the algorithms to do something with them, the functionals or basis sets would not do anything.
Hence, in our opinion, the algorithm design and method developments papers are equally worthy of getting cited

  1. Bannwarth, C.; Caldeweyher, E.; Ehlert, S.; Hansen, A.; Pracht, P.; Seibert, J.; Spicher, S.; Grimme, S.
     Extended tight-binding quantum chemistry methods
     WIRES Comput. Molec. Sci. 2020 11(2), e1493
     doi.org/10.1002/wcms.1493

List of suggested additional citations. These are papers that are important in the 'surrounding' of 
of this run, or papers that preceded the highly important papers. If you like your results we are grateful for a citation.

  1. Neese, F.
     The ORCA program system
     WIRES Comput. Molec. Sci. 2012 2(1), 73-78
     doi.org/10.1002/wcms.81
  2. Neese, F.
     Software update: the ORCA program system, version 4.0
     WIRES Comput. Molec. Sci. 2018 8(1), 1-6
     doi.org/10.1002/wcms.1327
  3. Neese, F.; Wennmohs, F.; Becker, U.; Riplinger, C.
     The ORCA quantum chemistry program package
     J. Chem. Phys. 2020 152(22), 224108
     doi.org/10.1063/5.0004608
  4. Neese, F.
     Software update: The ORCA program system—Version 5.0
     WIRES Comput. Molec. Sci. 2022 12(1), e1606
     doi.org/10.1002/wcms.1606

List of optional additional citations

  1. Neese, F.
     Approximate second-order SCF convergence for spin unrestricted wavefunctions
     Chem. Phys. Lett. 2000 325(1-3), 93-98
     doi.org/10.1016/s0009-2614(00)00662-x

Timings for individual modules:

Sum of individual times          ...     1894.282 sec (=  31.571 min)
Geometry relaxation              ...        0.029 sec (=   0.000 min)   0.0 %
GOAT                             ...     1893.934 sec (=  31.566 min) 100.0 %
XTB module                       ...        0.319 sec (=   0.005 min)   0.0 %
                             ****ORCA TERMINATED NORMALLY****
TOTAL RUN TIME: 0 days 0 hours 31 minutes 34 seconds 329 msec
