
                                 *****************
                                 * O   R   C   A *
                                 *****************

                                            #,                                       
                                            ###                                      
                                            ####                                     
                                            #####                                    
                                            ######                                   
                                           ########,                                 
                                     ,,################,,,,,                         
                               ,,#################################,,                 
                          ,,##########################################,,             
                       ,#########################################, ''#####,          
                    ,#############################################,,   '####,        
                  ,##################################################,,,,####,       
                ,###########''''           ''''###############################       
              ,#####''   ,,,,##########,,,,          '''####'''          '####       
            ,##' ,,,,###########################,,,                        '##       
           ' ,,###''''                  '''############,,,                           
         ,,##''                                '''############,,,,        ,,,,,,###''
      ,#''                                            '''#######################'''  
     '                                                          ''''####''''         
             ,#######,   #######,   ,#######,      ##                                
            ,#'     '#,  ##    ##  ,#'     '#,    #''#        ,####,    ,#,          
            ##       ##  ##   ,#'  ##            #'  '#       #'       ,# #          
            ##       ##  #######   ##           ,######,      #####,      #          
            '#,     ,#'  ##    ##  '#,     ,#' ,#      #,     #,   #      #          
             '#######'   ##     ##  '#######'  #'      '#     '####' #    #          



                #########################################################
                #                        -***-                          #
                #          Department of theory and spectroscopy        #
                #                                                       #
                #                      Frank Neese                      #
                #                                                       #
                #     Directorship, Architecture, Infrastructure        #
                #                    SHARK, DRIVERS                     #
                #        Core code/Algorithms in most modules           #
                #                                                       #
                #        Max Planck Institute fuer Kohlenforschung      #
                #                Kaiser Wilhelm Platz 1                 #
                #                 D-45470 Muelheim/Ruhr                 #
                #                      Germany                          #
                #                                                       #
                #                  All rights reserved                  #
                #                        -***-                          #
                #########################################################


                         Program Version 6.1.0  -  RELEASE   -
                                (GIT: $679e74b$)
                          ($2025-06-10 18:02:51 +0200$)


 With contributions from (in alphabetic order):
[Max-Planck-Institut fuer Kohlenforschung]                               
  Daniel Aravena         : Magnetic Suceptibility                        
  Michael Atanasov       : Ab Initio Ligand Field Theory (pilot matlab implementation)
  Alexander A. Auer      : GIAO ZORA, VPT2 properties, NMR spectrum      
  Ute Becker             : All parallelization in ORCA, NUMFREQ, NUMCALC 
  Giovanni Bistoni       : ED, misc. LED, open-shell LED, HFLD           
  Dmytro Bykov           : pre 5.0 version of the SCF Hessian            
  Marcos Casanova-Páez   : Triplet and SCS-CIS(D). UHF-(DLPNO)-IP/EA/STEOM-CCSD. UHF-CVS-IP/STEOM-CCSD   
  Vijay G. Chilkuri      : MRCI spin determinant printing, contributions to CSF-ICE 
  Pauline Colinet        : FMM embedding                                 
  Dipayan Datta          : RHF DLPNO-CCSD density                        
  Achintya Kumar Dutta   : EOM-CC, STEOM-CC                              
  Nicolas Foglia         : Exact transition moments, OPA infrastructure, MCD improvements    
  Dmitry Ganyushin       : Spin-Orbit,Spin-Spin,Magnetic field MRCI      
  Miquel Garcia-Rates    : C-PCM and meta-GGA Hessian, CCSD/C-PCM, Gaussian charge scheme 
  Tiago L. C. Gouveia    : GS-ROHF, GS-ROCIS                             
  Yang Guo               : DLPNO-NEVPT2, F12-NEVPT2, CIM, IAO-localization        
  Andreas Hansen         : Spin unrestricted coupled pair/coupled cluster methods 
  Ingolf Harden          : AUTO-CI MPn and infrastructure                
  Benjamin Helmich-Paris : MC-RPA, TRAH-(SCF,CASSCF), AVAS, COSX integrals, SCF dyn. polar., MC-PDFT, srDFT 
  Lee Huntington         : MR-EOM, pCC                                   
  Robert Izsak           : Overlap fitted RIJCOSX, COSX-SCS-MP3, EOM     
  Riya Kayal             : Wick's Theorem for AUTO-CI, AUTO-CI UHF-CCSDT 
  Emily Kempfer          : AUTO-CI RHF CISDT and CCSDT, approximate NEVPT4
  Christian Kollmar      : KDIIS, OOCD, Brueckner-CCSD(T), CCSD density, CASPT2, CASPT2-K, improved NEVPT2 
  Axel Koslowski         : Symmetry handling                             
  Simone Kossmann        : meta-GGA functionals, TD-DFT gradient, OOMP2, (MP2 Hessian; deprecated post 5.0) 
  Lucas Lang             : DCDCAS, Hyperfine gauge corrections, ICE-SOC+SSC
  Marvin Lechner         : AUTO-CI (C++ implementation), FIC-MRCC        
  Spencer Leger          : CASSCF response                               
  Dagmar Lenk            : GEPOL surface, SMD, ORCA-2-JSON               
  Dimitrios Liakos       : Extrapolation schemes; Compound Job, Property file
  Dimitrios Manganas     : Further ROCIS development; embedding schemes. LFT, Crystal Embedding 
  Dimitrios Pantazis     : SARC Basis sets                               
  Anastasios Papadopoulos: AUTO-CI, single reference methods and gradients 
  Taras Petrenko         : pre 6.0 DFT Hessian and TD-DFT gradient,  ECA, NRVS 
  Petra Pikulova         : Analytic Raman intensities                    
  Peter Pinski           : DLPNO-MP2, DLPNO-MP2 Gradient                 
  Shashank Vittal Rao    : ES-AILFT, MagRelax                            
  Christoph Reimann      : Effective Core Potentials                     
  Marius Retegan         : Local ZFS, SOC                                
  Christoph Riplinger    : Optimizer, TS searches, QM/MM, DLPNO-CCSD(T), (RO)-DLPNO pert. Triples 
  Michael Roemelt        : Original ROCIS implementation, recursive CI coupling coefficients
  Masaaki Saitow         : Open-shell DLPNO-CCSD energy and density      
  Barbara Sandhoefer     : DKH picture change effects                    
  Yorick L. A. Schmerwitz: GMF and freeze-and-release deltaSCF, NEB S-IDPP initial path                    
  Kantharuban Sivalingam : CASSCF convergence/infrastructure, NEVPT2, NEVPT3, NEVPT4(SD), FIC-MRCI and CEPA variants
  Bernardo de Souza      : ESD, SOC TD-DFT                               
  Georgi L. Stoychev     : AutoAux, RI-MP2 NMR, DLPNO-MP2 response, X2C  
  Van Anh Tran           : RI-MP2 g-tensors                              
  Willem Van den Heuvel  : Paramagnetic NMR                              
  Zikuan Wang            : NOTCH, Electric field optimization            
  Frank Wennmohs         : Technical directorship and infrastructure     
  Hang Xu                : AUTO-CI-Response properties                   
                                                                         
[FACCTs GmbH]                                                            
  Markus Bursch, Nicolas Foglia, Miquel Garcia-Rates, Ingolf Harden, Hagen Neugebauer, Anastasios Papadopoulos, 
  Christoph Riplinger, Bernardo de Souza, Georgi L. Stoychev                                                    
                                                                 
  APM, various basis sets, CI-OPT, improved COSX, DLPNO-Multilevel,           
  DOCKER, DRACO, updates on ESD, Fragmentator, GOAT, IRC, LR-CPCM, L-BFGS, MBIS, meta-GGA TD-DFT gradient, ML-optimized integration grids, 
  MM, NACMEs, nearIR, NEB, NEB-TS, NL-DFT gradient (VV10), 2- and 3-layer-ONIOM, interface openCOSMO-RS, QMMM,   
  Crystal-QMMM, RESP, rigid body optimization, SF, symmetry and pop. for TD-DFT, various functionals, SOLVATOR                                   
                                                                         
[Other institutions]                                                     
  V. Asgeirsson          : NEB                                           
  Christoph Bannwarth    : sTDA-DFT, sTD-DFT, PBEh-3c, B97-3c, D3        
  Giovanni Bistoni       : ETS/NOCV, ADLD/ADEX, COVALED                  
  Martin Brehm           : Molecular dynamics                            
  Ronald Cardenas        : ETS/NOCV                                      
  Martina Colucci        : COVALED                                       
  Sebastian Ehlert       : rSCAN, r2SCAN, r2SCAN-3c, D4, dhf basis sets  
  Marvin Friede          : D4 for Fr, Ra, Ac-Lr                          
  Lars Goerigk           : TD-DFT with DH, B97 family of functionals     
  Stefan Grimme          : VdW corrections, initial TS optimization, DFT functionals, gCP, sTDA/sTD-DF 
  Waldemar Hujo          : DFT-NL                                        
  H. Jonsson             : NEB                                           
  Holger Kruse           : gCP                                           
  Marcel Mueller         : wB97X-3c, vDZP basis set                      
  Hagen Neugebauer       : wr2SCAN, Native XTB                           
  Gianluca Regni         : ADLD/ADEX                                     
  Tobias Risthaus        : pre 6.0 range-separated hybrid DFT and stability analysis
  Lukas Wittmann         : regularized MP2, r2SCAN double-hybrids, wr2SCAN        
                                                                         
We gratefully acknowledge several colleagues who have allowed us to      
interface, adapt or use parts of their codes:                            
  Ed Valeev, F. Pavosevic, A. Kumar             : LibInt (2-el integral package), F12 methods 
  Garnet Chan, S. Sharma, J. Yang, R. Olivares  : DMRG                   
  Ulf Ekstrom                                   : XCFun DFT Library      
  Mihaly Kallay                                 : mrcc  (arbitrary order and MRCC methods)
  Frank Weinhold                                : gennbo (NPA and NBO analysis)           
  Simon Mueller                                 : openCOSMO-RS                            
  Christopher J. Cramer and Donald G. Truhlar   : smd solvation model                     
  S Lehtola, MJT Oliveira, MAL Marques          : LibXC Library                           
  Liviu Ungur et al                             : ANISO software                          


 Your calculation uses the libint2 library for the computation of 2-el integrals
 For citations please refer to: http://libint.valeyev.net

 Your ORCA version has been built with support for libXC version: 7.0.0
 For citations please refer to: https://libxc.gitlab.io

 This ORCA versions uses:
   CBLAS   interface :  Fast vector & matrix operations
   LAPACKE interface :  Fast linear algebra routines
   SCALAPACK package :  Parallel linear algebra routines
   Shared memory     :  Shared parallel matrices
   BLAS/LAPACK       :  OpenBLAS 0.3.29  USE64BITINT DYNAMIC_ARCH NO_AFFINITY Haswell SINGLE_THREADED
        Core in use  :  Haswell
   Copyright (c) 2011-2014, The OpenBLAS Project


  ***********************************
  * Starting time: Wed Aug 13 23:48:08 2025
  * Host name:     CHEMLAB02
  * Process ID:    1540956
  * Working dir.:  /home/vivek/mm-project/vivek/B97-D/l/1
  ***********************************



***************************************
The coordinates will be read from file: /home/vivek/mm-project/vivek/xtb-goat/l/L_CONF/1.xyz
***************************************


Your calculation utilizes empirical dispersion correction


Warning: RI is on but no J-basis has been assigned. Assigning Def2/J (nothing to worry about!)
================================================================================

----- Orbital basis set information -----
Your calculation utilizes the basis: 6-31G**
   H-He, Li-Ne : W. J. Hehre, R. Ditchfield and J.A. Pople, J. Chem. Phys. 56, 2257 (1972).
                 Note: He and Ne are unpublished basis sets taken from the Gaussian program.
                 Note: Li and B from J. D. Dill and J. A. Pople, J. Chem. Phys. 62, 2921 (1975).
   Na - Ar     : M. M. Francl, W. J. Pietro, W. J. Hehre, J. S. Binkley, M. S. Gordon, 
                 D. J. DeFrees and J. A. Pople, J. Chem. Phys. 77, 3654 (1982).
   K - Zn      : V. A. Rassolov, J. A. Pople, M. A. Ratner, and T. L. Windus, J. Chem. Phys. 109, 1223 (1998).

----- AuxJ basis set information -----
Your calculation utilizes the auxiliary basis: def2/J
   H-Rn: F. Weigend, Phys. Chem. Chem. Phys. 8, 1057 (2006).
   Fr-Lr: K. Eichkorn, F. Weigend, O. Treutler, R. Ahlrichs; Theor. Chem. Acc. 97, 119 (1997).

================================================================================
                                        WARNINGS
                       Please study these warnings very carefully!
================================================================================


INFO   : The exchange functional is Grimme's B97(-D)
         As described in S. Grimme, J. Comput. Chem. 27, 1787 (2006).
         Note that this functional defaults to a pure GGA. 

INFO   : The correlation functional is Grimme's B97(-D)
         As described in S. Grimme, J. Comput. Chem. 27, 1787 (2006).

================================================================================
                                       INPUT FILE
================================================================================
NAME = 1.inp
|  1> ! B97-D 6-31G** 
|  2> 
|  3> * xyzfile 0 1 /home/vivek/mm-project/vivek/xtb-goat/l/L_CONF/1.xyz
|  4> 
|  5>                          ****END OF INPUT****
================================================================================

                       ****************************
                       * Single Point Calculation *
                       ****************************

---------------------------------
CARTESIAN COORDINATES (ANGSTROEM)
---------------------------------
  C     -9.008067    6.272628   -1.638856
  C     -8.960827    7.078837   -0.344463
  H     -7.282950    7.022704   -2.413807
  H     -7.079770    5.657601   -1.544113
  C     -9.669657    4.916229   -1.338194
  O    -10.171556    7.466555    0.072536
  H    -10.581562    2.338279   -1.506863
  N     -7.688897    6.113503   -2.217260
  C    -10.125196    4.154631   -2.588514
  H     -8.967140    4.300390   -0.772370
  H    -10.541834    5.105966   -0.709228
  C     -8.942410    3.586098   -3.365642
  H     -9.286025    3.109607   -4.280938
  C    -11.078384    3.030899   -2.183040
  H     -8.243909    4.378167   -3.616244
  H     -8.422319    2.841694   -2.766564
  H    -10.667729    4.852045   -3.235749
  H    -11.959001    3.427835   -1.682659
  H    -11.404038    2.476887   -3.060194
  H     -9.636899    6.822060   -2.349270
  H    -10.100714    7.966009    0.902002
  O     -7.950715    7.348402    0.250916

----------------------------
CARTESIAN COORDINATES (A.U.)
----------------------------
  NO LB      ZA    FRAG     MASS         X           Y           Z
   0 C     6.0000    0    12.011  -17.022781   11.853550   -3.096989
   1 C     6.0000    0    12.011  -16.933508   13.377064   -0.650941
   2 H     1.0000    0     1.008  -13.762780   13.270987   -4.561433
   3 H     1.0000    0     1.008  -13.378826   10.691317   -2.917950
   4 C     6.0000    0    12.011  -18.273003    9.290326   -2.528820
   5 O     8.0000    0    15.999  -19.221455   14.109744    0.137073
   6 H     1.0000    0     1.008  -19.996254    4.418707   -2.847559
   7 N     7.0000    0    14.007  -14.529909   11.552846   -4.190015
   8 C     6.0000    0    12.011  -19.133847    7.851114   -4.891582
   9 H     1.0000    0     1.008  -16.945439    8.126560   -1.459567
  10 H     1.0000    0     1.008  -19.921179    9.648878   -1.340246
  11 C     6.0000    0    12.011  -16.898705    6.776744   -6.360142
  12 H     1.0000    0     1.008  -17.548045    5.876305   -8.089800
  13 C     6.0000    0    12.011  -20.935111    5.727568   -4.125348
  14 H     1.0000    0     1.008  -15.578729    8.273537   -6.833710
  15 H     1.0000    0     1.008  -15.915877    5.370024   -5.228048
  16 H     1.0000    0     1.008  -20.159086    9.169036   -6.114680
  17 H     1.0000    0     1.008  -22.599236    6.477669   -3.179764
  18 H     1.0000    0     1.008  -21.550509    4.680638   -5.782929
  19 H     1.0000    0     1.008  -18.211099   12.891826   -4.439477
  20 H     1.0000    0     1.008  -19.087583   15.053576    1.704536
  21 O     8.0000    0    15.999  -15.024674   13.886467    0.474163

--------------------------------
INTERNAL COORDINATES (ANGSTROEM)
--------------------------------
 C      0   0   0     0.000000000000     0.00000000     0.00000000
 C      1   0   0     1.525666297433     0.00000000     0.00000000
 H      1   2   0     2.034500579839    95.85939232     0.00000000
 H      3   1   2     1.631304357380    66.04768649    91.73192751
 C      1   2   3     1.538803989056   108.26042636   147.41087773
 O      2   1   3     1.337938349020   112.92583499   143.80940792
 H      5   1   2     2.739679910785   163.84336130   191.64313006
 N      3   1   2     1.014923522737    41.99595858   126.65403642
 C      5   1   2     1.533247183407   113.96934212   164.51437338
 H      5   1   2     1.092219688823   108.76514975   286.95948080
 H      5   1   2     1.091921191928   107.62545823    44.03470006
 C      9   5   1     1.525169064686   111.73187292    72.53031290
 H     12   9   5     1.087603618863   110.31066675   183.81246617
 C      7   5   1     1.088011471561    65.87300444   291.63270429
 H     12   9   5     1.085393155330   110.16314681   304.43064721
 H     12   9   5     1.087899973653   110.19568190    64.22958201
 H      9   5   1     1.095281914863   108.22625710   312.90135734
 H     14   7   5     1.087853775095   108.42490256   268.21455254
 H     14   7   5     1.087372887253   108.28508353   150.87790619
 H      1   2   3     1.096353911386   107.61937356   264.81593849
 H      6   2   1     0.970817760377   110.44730960   179.31198368
 O      2   1   3     1.203107012568   124.35005420   323.90302640

---------------------------
INTERNAL COORDINATES (A.U.)
---------------------------
 C      0   0   0     0.000000000000     0.00000000     0.00000000
 C      1   0   0     2.883091473903     0.00000000     0.00000000
 H      1   2   0     3.844648915200    95.85939232     0.00000000
 H      3   1   2     3.082718476521    66.04768649    91.73192751
 C      1   2   3     2.907918113101   108.26042636   147.41087773
 O      2   1   3     2.528337063718   112.92583499   143.80940792
 H      5   1   2     5.177244725989   163.84336130   191.64313006
 N      3   1   2     1.917927504848    41.99595858   126.65403642
 C      5   1   2     2.897417272245   113.96934212   164.51437338
 H      5   1   2     2.063996089953   108.76514975   286.95948080
 H      5   1   2     2.063432012569   107.62545823    44.03470006
 C      9   5   1     2.882151840186   111.73187292    72.53031290
 H     12   9   5     2.055272981912   110.31066675   183.81246617
 C      7   5   1     2.056043711815    65.87300444   291.63270429
 H     12   9   5     2.051095811206   110.16314681   304.43064721
 H     12   9   5     2.055833011304   110.19568190    64.22958201
 H      9   5   1     2.069782858528   108.22625710   312.90135734
 H     14   7   5     2.055745708682   108.42490256   268.21455254
 H     14   7   5     2.054836962360   108.28508353   150.87790619
 H      1   2   3     2.071808638373   107.61937356   264.81593849
 H      6   2   1     1.834579693058   110.44730960   179.31198368
 O      2   1   3     2.273542763553   124.35005420   323.90302640

---------------------
BASIS SET INFORMATION
---------------------
There are 4 groups of distinct atoms

 Group   1 Type C   : 10s4p1d contracted to 3s2p1d pattern {631/31/1}
 Group   2 Type H   : 4s1p contracted to 2s1p pattern {31/1}
 Group   3 Type O   : 10s4p1d contracted to 3s2p1d pattern {631/31/1}
 Group   4 Type N   : 10s4p1d contracted to 3s2p1d pattern {631/31/1}

Atom   0C    basis set group =>   1
Atom   1C    basis set group =>   1
Atom   2H    basis set group =>   2
Atom   3H    basis set group =>   2
Atom   4C    basis set group =>   1
Atom   5O    basis set group =>   3
Atom   6H    basis set group =>   2
Atom   7N    basis set group =>   4
Atom   8C    basis set group =>   1
Atom   9H    basis set group =>   2
Atom  10H    basis set group =>   2
Atom  11C    basis set group =>   1
Atom  12H    basis set group =>   2
Atom  13C    basis set group =>   1
Atom  14H    basis set group =>   2
Atom  15H    basis set group =>   2
Atom  16H    basis set group =>   2
Atom  17H    basis set group =>   2
Atom  18H    basis set group =>   2
Atom  19H    basis set group =>   2
Atom  20H    basis set group =>   2
Atom  21O    basis set group =>   3
---------------------------------
AUXILIARY/J BASIS SET INFORMATION
---------------------------------
There are 4 groups of distinct atoms

 Group   1 Type C   : 12s5p4d2f1g contracted to 6s4p3d1f1g pattern {711111/2111/211/2/1}
 Group   2 Type H   : 5s2p1d contracted to 3s1p1d pattern {311/2/1}
 Group   3 Type O   : 12s5p4d2f1g contracted to 6s4p3d1f1g pattern {711111/2111/211/2/1}
 Group   4 Type N   : 12s5p4d2f1g contracted to 6s4p3d1f1g pattern {711111/2111/211/2/1}

Atom   0C    basis set group =>   1
Atom   1C    basis set group =>   1
Atom   2H    basis set group =>   2
Atom   3H    basis set group =>   2
Atom   4C    basis set group =>   1
Atom   5O    basis set group =>   3
Atom   6H    basis set group =>   2
Atom   7N    basis set group =>   4
Atom   8C    basis set group =>   1
Atom   9H    basis set group =>   2
Atom  10H    basis set group =>   2
Atom  11C    basis set group =>   1
Atom  12H    basis set group =>   2
Atom  13C    basis set group =>   1
Atom  14H    basis set group =>   2
Atom  15H    basis set group =>   2
Atom  16H    basis set group =>   2
Atom  17H    basis set group =>   2
Atom  18H    basis set group =>   2
Atom  19H    basis set group =>   2
Atom  20H    basis set group =>   2
Atom  21O    basis set group =>   3
------------------------------------------------------------------------------
                             ORCA STARTUP CALCULATIONS
                           -- RI-GTO INTEGRALS CHOSEN --
------------------------------------------------------------------------------
------------------------------------------------------------------------------
                   ___                                                        
                  /   \      - P O W E R E D   B Y -                         
                 /     \                                                     
                 |  |  |   _    _      __       _____    __    __             
                 |  |  |  | |  | |    /  \     |  _  \  |  |  /  |          
                  \  \/   | |  | |   /    \    | | | |  |  | /  /          
                 / \  \   | |__| |  /  /\  \   | |_| |  |  |/  /          
                |  |  |   |  __  | /  /__\  \  |    /   |      \           
                |  |  |   | |  | | |   __   |  |    \   |  |\   \          
                \     /   | |  | | |  |  |  |  | |\  \  |  | \   \       
                 \___/    |_|  |_| |__|  |__|  |_| \__\ |__|  \__/        
                                                                              
                      - O R C A' S   B I G   F R I E N D -                    
                                      &                                       
                       - I N T E G R A L  F E E D E R -                       
                                                                              
 v1 FN, 2020, v2 2021, v3 2022-2024                                           
------------------------------------------------------------------------------


----------------------
SHARK INTEGRAL PACKAGE
----------------------

Number of atoms                             ...     22
Number of basis functions                   ...    191
Number of shells                            ...     93
Maximum angular momentum                    ...      2
Integral batch strategy                     ... SHARK/LIBINT Hybrid
RI-J (if used) integral strategy            ... SPLIT-RIJ (Revised 2003 algorithm where possible)
Printlevel                                  ...      1
Contraction scheme used                     ... SEGMENTED contraction
Prescreening option                         ... SCHWARTZ
   Thresh                                   ... 1.000e-10
   Tcut                                     ... 1.000e-11
   Tpresel                                  ... 1.000e-11 
Coulomb Range Separation                    ... NOT USED
Exchange Range Separation                   ... NOT USED
Multipole approximations                    ... NOT USED
Finite Nucleus Model                        ... NOT USED
CABS basis                                  ... NOT available
Auxiliary Coulomb fitting basis             ... AVAILABLE
   # of basis functions in Aux-J            ...    584
   # of shells in Aux-J                     ...    200
   Maximum angular momentum in Aux-J        ...      4
Auxiliary J/K fitting basis                 ... NOT available
Auxiliary Correlation fitting basis         ... NOT available
Auxiliary 'external' fitting basis          ... NOT available

Checking pre-screening integrals            ... done (  0.0 sec) Dimension = 93
   => SHARK Basis and OBASIS are compatible. Storing Pre-screening
Shell pair information
Shell pair cut-off parameter TPreSel        ...   1.0e-11
Total number of shell pairs                 ...      4371
Shell pairs after pre-screening             ...      3853
Total number of primitive shell pairs       ...     20328
Primitive shell pairs kept                  ...     11894
          la=0 lb=0:   1280 shell pairs
          la=1 lb=0:   1448 shell pairs
          la=1 lb=1:    429 shell pairs
          la=2 lb=0:    415 shell pairs
          la=2 lb=1:    242 shell pairs
          la=2 lb=2:     39 shell pairs

Checking whether 4 symmetric matrices of dimension 191 fit in memory
:Max Core in MB      =   4096.00
 MB in use           =      8.53
 MB left             =   4087.47
 MB needed           =      0.56
 Data fit in memory  = YES
Calculating RI/J V-Matrix + Cholesky decomp.... done (  0.0 sec)
Calculating Nuclear repulsion               ... done (  0.0 sec) ENN=    482.767187976544 Eh

Diagonalization of the overlap matrix:
Smallest eigenvalue                        ... 2.830e-03
Time for diagonalization                   ...    0.002 sec
Threshold for overlap eigenvalues          ... 1.000e-07
Number of eigenvalues below threshold      ... 0
Time for construction of square roots      ...    0.001 sec
Total time needed                          ...    0.003 sec

-------------------
DFT GRID GENERATION
-------------------

General Integration Accuracy     IntAcc      ... 4.388
Radial Grid Type                 RadialGrid  ... OptM3 with GC (2021)
Angular Grid (max. ang.)         AngularGrid ... 4 (Lebedev-302)
Angular grid pruning method      GridPruning ... 4 (adaptive)
Weight generation scheme         WeightScheme... mBecke (2022)
Basis function cutoff            BFCut       ... 1.0000e-10
Integration weight cutoff        WCut        ... 1.0000e-14
Partially contracted basis set               ... off
Rotationally invariant grid construction     ... off
Angular grids for H and He will be reduced by one unit

Total number of grid points                  ...    95688
Total number of batches                      ...     1508
Average number of points per batch           ...       63
Average number of grid points per atom       ...     4349
Grids setup in   0.4 sec
Initializing property integral containers    ... done (  0.0 sec)

SHARK setup successfully completed in   0.4 seconds

Maximum memory used throughout the entire STARTUP-calculation: 40.5 MB
-------------------------------------------------------------------------------
                                 ORCA GUESS
                   Start orbitals & Density for SCF / CASSCF
-------------------------------------------------------------------------------

------------
SCF SETTINGS
------------
Hamiltonian:
 Density Functional     Method          .... DFT(GTOs)
 Exchange Functional    Exchange        .... B97(D)
 Correlation Functional Correlation     .... B97(D)
 Gradients option       PostSCFGGA      .... off
 RI-approximation to the Coulomb term is turned on
   Number of AuxJ basis functions       .... 584


General Settings:
 Integral files         IntName         .... 1
 Hartree-Fock type      HFTyp           .... RHF
 Total Charge           Charge          ....    0
 Multiplicity           Mult            ....    1
 Number of Electrons    NEL             ....   72
 Basis Dimension        Dim             ....  191
 Nuclear Repulsion      ENuc            ....    482.7671879765 Eh

Convergence Acceleration:
 AO-DIIS                CNVDIIS         .... on
   Start iteration      DIISMaxIt       ....    12
   Startup error        DIISStart       ....  0.200000
   # of expansion vecs  DIISMaxEq       ....     5
   Bias factor          DIISBfac        ....   1.050
   Max. coefficient     DIISMaxC        ....  10.000
 MO-DIIS                CNVKDIIS        .... off
 Trust-Rad. Augm. Hess. CNVTRAH         .... auto
   Auto Start mean grad. ratio tolernc. ....  1.125000
   Auto Start start iteration           ....    50
   Auto Start num. interpolation iter.  ....    10
   Max. Number of Micro iterations      ....    24
   Max. Number of Macro iterations      .... Maxiter - #DIIS iter
   Number of Davidson start vectors     ....     2
   Converg. threshold    (grad. norm)   ....   5.000e-05
   Grad. Scal. Fac. for Micro threshold ....   0.100
   Minimum threshold for Micro iter.    ....   1.000e-02
   NR start threshold (gradient norm)   ....   1.000e-04
   Initial trust radius                 ....   0.400
   Minimum AH scaling param. (alpha)    ....   1.000
   Maximum AH scaling param. (alpha)    .... 1000.000
   Quad. conv. algorithm                .... NR
   White noise on init. David. guess    .... on
   Maximum white noise                  ....   0.010
   Pseudo random numbers                .... off
   Inactive MOs                         .... canonical
   Orbital update algorithm             .... Taylor
   Preconditioner                       .... Diag
   Full preconditioner red. dimension   ....   250
 SOSCF                 CNVSOSCF           .... on
   Start iteration     SOSCFMaxIt         ....   150
   Startup grad/error  SOSCFStart         ....  0.003300
   Hessian update      SOSCFHessUp        .... L-BFGS
   Autom. constraints  SOSCFAutoConstrain .... off
 Level Shifting         CNVShift        .... on
   Level shift para.    LevelShift      ....    0.2500
   Turn off err/grad.   ShiftErr        ....    0.0010
 Zerner damping         CNVZerner       .... off
 Static damping         CNVDamp         .... on
   Fraction old density DampFac         ....    0.7000
   Max. Damping (<1)    DampMax         ....    0.9800
   Min. Damping (>=0)   DampMin         ....    0.0000
   Turn off err/grad.   DampErr         ....    0.1000

SCF Procedure:
 Maximum # iterations   MaxIter         ....   125
 SCF integral mode      SCFMode         .... Direct
   Integral package                     .... SHARK and LIBINT hybrid scheme
 Reset frequency        DirectResetFreq ....    20
 Integral Threshold     Thresh          ....  1.000e-10 Eh
 Primitive CutOff       TCut            ....  1.000e-11 Eh

Convergence Tolerance:
 Convergence Check Mode ConvCheckMode   .... Total+1el-Energy
 Convergence forced     ConvForced      .... 0
 Energy Change          TolE            ....  1.000e-06 Eh
 1-El. energy change                    ....  1.000e-03 Eh
 Orbital Gradient       TolG            ....  5.000e-05
 Orbital Rotation angle TolX            ....  5.000e-05
 DIIS Error             TolErr          ....  1.000e-06

------------------------------
INITIAL GUESS: MODEL POTENTIAL
------------------------------
Loading Hartree-Fock densities                     ... done
Calculating cut-offs                               ... done
Initializing the effective Hamiltonian             ... done
Setting up the integral package (SHARK)            ... done
Starting the Coulomb interaction                   ... done (   0.1 sec)
Making the grid                                    ... done (   0.1 sec)
Mapping shells                                     ... done
Starting the XC term evaluation                    ... done (   0.1 sec)
  promolecular density results
     # of electrons  =     71.997380331
     EX              =    -56.846350163
     EC              =     -3.118135740
     EX+EC           =    -59.964485903
Transforming the Hamiltonian                       ... done (   0.0 sec)
Diagonalizing the Hamiltonian                      ... done (   0.0 sec)
Back transforming the eigenvectors                 ... done (   0.0 sec)
Now organizing SCF variables                       ... done
                      ------------------
                      INITIAL GUESS DONE (   0.3 sec)
                      ------------------
             **** ENERGY FILE WAS UPDATED (1.en.tmp) ****
Finished Guess after   0.3 sec
Maximum memory used throughout the entire GUESS-calculation: 13.5 MB

-------------------------------------------------------------------------------------------
                                      ORCA LEAN-SCF
                              memory conserving SCF solver
-------------------------------------------------------------------------------------------

----------------------------------------D-I-I-S--------------------------------------------
Iteration    Energy (Eh)           Delta-E    RMSDP     MaxDP     DIISErr   Damp  Time(sec)
-------------------------------------------------------------------------------------------
               ***  Starting incremental Fock matrix formation  ***
    1    -441.0132506416575211     0.00e+00  3.61e-03  1.06e-01  2.58e-01  0.700   0.5
    2    -441.1940338541782580    -1.81e-01  2.38e-03  5.54e-02  9.58e-02  0.700   0.5
                               ***Turning on AO-DIIS***
    3    -441.2502101657987055    -5.62e-02  9.16e-04  1.71e-02  2.91e-02  0.700   0.5
    4    -441.2863378871414284    -3.61e-02  1.22e-03  2.12e-02  1.30e-02  0.000   0.5
    5    -441.3700577145094144    -8.37e-02  4.15e-04  8.99e-03  1.05e-02  0.000   0.5
    6    -441.3709810541558340    -9.23e-04  1.55e-04  3.13e-03  3.32e-03  0.000   0.5
                              *** Initializing SOSCF ***
---------------------------------------S-O-S-C-F--------------------------------------
Iteration    Energy (Eh)           Delta-E    RMSDP     MaxDP     MaxGrad    Time(sec)
--------------------------------------------------------------------------------------
    7    -441.3710550219149695    -7.40e-05  5.67e-05  1.41e-03  1.81e-03     0.5
               *** Restarting incremental Fock matrix formation ***
    8    -441.3710657356708111    -1.07e-05  3.77e-05  7.12e-04  1.14e-04     0.5
    9    -441.3710648722035899     8.63e-07  1.86e-05  6.75e-04  3.41e-04     0.4
                 **** Energy Check signals convergence ****

               *****************************************************
               *                     SUCCESS                       *
               *           SCF CONVERGED AFTER   9 CYCLES          *
               *****************************************************

             **** ENERGY FILE WAS UPDATED (1.en.tmp) ****

----------------
TOTAL SCF ENERGY
----------------

Total Energy       :       -441.37106664950312 Eh          -12010.31732 eV

Components:
Nuclear Repulsion  :        482.76718797654365 Eh           13136.76304 eV
Electronic Energy  :       -924.13825462604677 Eh          -25147.08036 eV
One Electron Energy:      -1557.62565271302469 Eh          -42385.14883 eV
Two Electron Energy:        633.48739808697792 Eh           17238.06847 eV

Virial components:
Potential Energy   :       -880.49588510785372 Eh          -23959.51111 eV
Kinetic Energy     :        439.12481845835060 Eh           11949.19380 eV
Virial Ratio       :          2.00511528407581

DFT components:
N(Alpha)           :       36.000024487886 electrons
N(Beta)            :       36.000024487886 electrons
N(Total)           :       72.000048975771 electrons
E(X)               :      -58.279612028627 Eh       
E(C)               :       -3.115235922595 Eh       
E(XC)              :      -61.394847951222 Eh       

---------------
SCF CONVERGENCE
---------------

  Last Energy change         ...   -8.6347e-07  Tolerance :   1.0000e-06
  Last MAX-Density change    ...    6.7544e-04  Tolerance :   1.0000e-05
  Last RMS-Density change    ...    1.8638e-05  Tolerance :   1.0000e-06
  Last DIIS Error            ...    1.8102e-03  Tolerance :   1.0000e-06
  Last Orbital Gradient      ...    3.4140e-04  Tolerance :   5.0000e-05
  Last Orbital Rotation      ...    4.8659e-04  Tolerance :   5.0000e-05


----------------
ORBITAL ENERGIES
----------------

  NO   OCC          E(Eh)            E(eV) 
   0   2.0000     -18.814156      -511.9592 
   1   2.0000     -18.752851      -510.2910 
   2   2.0000     -13.987770      -380.6266 
   3   2.0000     -10.026282      -272.8290 
   4   2.0000      -9.947511      -270.6855 
   5   2.0000      -9.905774      -269.5498 
   6   2.0000      -9.904335      -269.5106 
   7   2.0000      -9.887778      -269.0601 
   8   2.0000      -9.873422      -268.6695 
   9   2.0000      -1.020576       -27.7713 
  10   2.0000      -0.931524       -25.3481 
  11   2.0000      -0.817129       -22.2352 
  12   2.0000      -0.728512       -19.8238 
  13   2.0000      -0.667567       -18.1654 
  14   2.0000      -0.606513       -16.5041 
  15   2.0000      -0.597178       -16.2500 
  16   2.0000      -0.535830       -14.5807 
  17   2.0000      -0.503055       -13.6888 
  18   2.0000      -0.448975       -12.2172 
  19   2.0000      -0.440547       -11.9879 
  20   2.0000      -0.424112       -11.5407 
  21   2.0000      -0.409022       -11.1300 
  22   2.0000      -0.389770       -10.6062 
  23   2.0000      -0.372357       -10.1324 
  24   2.0000      -0.370048       -10.0695 
  25   2.0000      -0.358754        -9.7622 
  26   2.0000      -0.339959        -9.2508 
  27   2.0000      -0.328884        -8.9494 
  28   2.0000      -0.312716        -8.5094 
  29   2.0000      -0.307776        -8.3750 
  30   2.0000      -0.281760        -7.6671 
  31   2.0000      -0.277892        -7.5618 
  32   2.0000      -0.276427        -7.5220 
  33   2.0000      -0.270013        -7.3474 
  34   2.0000      -0.223119        -6.0714 
  35   2.0000      -0.193247        -5.2585 
  36   0.0000      -0.016459        -0.4479 
  37   0.0000       0.050575         1.3762 
  38   0.0000       0.070069         1.9067 
  39   0.0000       0.087358         2.3771 
  40   0.0000       0.091253         2.4831 
  41   0.0000       0.130644         3.5550 
  42   0.0000       0.134487         3.6596 
  43   0.0000       0.137744         3.7482 
  44   0.0000       0.146321         3.9816 
  45   0.0000       0.149262         4.0616 
  46   0.0000       0.162693         4.4271 
*Only the first 10 virtual orbitals were printed.

                    ********************************
                    * MULLIKEN POPULATION ANALYSIS *
                    ********************************

-----------------------
MULLIKEN ATOMIC CHARGES
-----------------------
   0 C :   -0.044858
   1 C :    0.480173
   2 H :    0.244580
   3 H :    0.246502
   4 C :   -0.176848
   5 O :   -0.454153
   6 H :    0.103156
   7 N :   -0.544847
   8 C :   -0.068534
   9 H :    0.097615
  10 H :    0.116143
  11 C :   -0.323249
  12 H :    0.090312
  13 C :   -0.319634
  14 H :    0.145231
  15 H :    0.089600
  16 H :    0.089536
  17 H :    0.099838
  18 H :    0.104159
  19 H :    0.125899
  20 H :    0.317940
  21 O :   -0.418562
Sum of atomic charges:    0.0000000

--------------------------------
MULLIKEN REDUCED ORBITAL CHARGES
--------------------------------
  0 C s       :     3.201892  s :     3.201892
      pz      :     0.922276  p :     2.785605
      px      :     0.868659
      py      :     0.994670
      dz2     :     0.009214  d :     0.057361
      dxz     :     0.013286
      dyz     :     0.012639
      dx2y2   :     0.011120
      dxy     :     0.011103

  1 C s       :     2.990222  s :     2.990222
      pz      :     0.871537  p :     2.405393
      px      :     0.719016
      py      :     0.814840
      dz2     :     0.024103  d :     0.124212
      dxz     :     0.032213
      dyz     :     0.010329
      dx2y2   :     0.028517
      dxy     :     0.029050

  2 H s       :     0.731476  s :     0.731476
      pz      :     0.007795  p :     0.023944
      px      :     0.005609
      py      :     0.010540

  3 H s       :     0.729512  s :     0.729512
      pz      :     0.009381  p :     0.023986
      px      :     0.007009
      py      :     0.007596

  4 C s       :     3.228650  s :     3.228650
      pz      :     0.990137  p :     2.912017
      px      :     1.003478
      py      :     0.918403
      dz2     :     0.004497  d :     0.036181
      dxz     :     0.010103
      dyz     :     0.008198
      dx2y2   :     0.005439
      dxy     :     0.007944

  5 O s       :     3.824336  s :     3.824336
      pz      :     1.452519  p :     4.607101
      px      :     1.521842
      py      :     1.632740
      dz2     :     0.004259  d :     0.022715
      dxz     :     0.004404
      dyz     :     0.003286
      dx2y2   :     0.005665
      dxy     :     0.005102

  6 H s       :     0.885240  s :     0.885240
      pz      :     0.004092  p :     0.011604
      px      :     0.003293
      py      :     0.004219

  7 N s       :     3.586452  s :     3.586452
      pz      :     1.546876  p :     3.929955
      px      :     1.073760
      py      :     1.309320
      dz2     :     0.004446  d :     0.028440
      dxz     :     0.009396
      dyz     :     0.002487
      dx2y2   :     0.005393
      dxy     :     0.006719

  8 C s       :     3.208909  s :     3.208909
      pz      :     0.933473  p :     2.815837
      px      :     0.941009
      py      :     0.941356
      dz2     :     0.006198  d :     0.043788
      dxz     :     0.009917
      dyz     :     0.011038
      dx2y2   :     0.005797
      dxy     :     0.010838

  9 H s       :     0.890756  s :     0.890756
      pz      :     0.003671  p :     0.011629
      px      :     0.004117
      py      :     0.003841

 10 H s       :     0.872101  s :     0.872101
      pz      :     0.004001  p :     0.011757
      px      :     0.005098
      py      :     0.002658

 11 C s       :     3.243552  s :     3.243552
      pz      :     1.006096  p :     3.049795
      px      :     0.999485
      py      :     1.044214
      dz2     :     0.004464  d :     0.029903
      dxz     :     0.006378
      dyz     :     0.007427
      dx2y2   :     0.002492
      dxy     :     0.009142

 12 H s       :     0.898057  s :     0.898057
      pz      :     0.005320  p :     0.011631
      px      :     0.002876
      py      :     0.003435

 13 C s       :     3.247620  s :     3.247620
      pz      :     1.035034  p :     3.041556
      px      :     1.007188
      py      :     0.999334
      dz2     :     0.002660  d :     0.030458
      dxz     :     0.006947
      dyz     :     0.009114
      dx2y2   :     0.004413
      dxy     :     0.007324

 14 H s       :     0.841812  s :     0.841812
      pz      :     0.002671  p :     0.012957
      px      :     0.004508
      py      :     0.005778

 15 H s       :     0.898723  s :     0.898723
      pz      :     0.003602  p :     0.011676
      px      :     0.003553
      py      :     0.004521

 16 H s       :     0.899007  s :     0.899007
      pz      :     0.003912  p :     0.011457
      px      :     0.003539
      py      :     0.004006

 17 H s       :     0.888582  s :     0.888582
      pz      :     0.003476  p :     0.011580
      px      :     0.005128
      py      :     0.002977

 18 H s       :     0.884245  s :     0.884245
      pz      :     0.005034  p :     0.011596
      px      :     0.002942
      py      :     0.003620

 19 H s       :     0.863051  s :     0.863051
      pz      :     0.004150  p :     0.011050
      px      :     0.003361
      py      :     0.003539

 20 H s       :     0.644124  s :     0.644124
      pz      :     0.018244  p :     0.037936
      px      :     0.007238
      py      :     0.012454

 21 O s       :     3.854946  s :     3.854946
      pz      :     1.563833  p :     4.535554
      px      :     1.479632
      py      :     1.492088
      dz2     :     0.004800  d :     0.028062
      dxz     :     0.007807
      dyz     :     0.002419
      dx2y2   :     0.005633
      dxy     :     0.007402



                     *******************************
                     * LOEWDIN POPULATION ANALYSIS *
                     *******************************

----------------------
LOEWDIN ATOMIC CHARGES
----------------------
   0 C :   -0.049569
   1 C :    0.100362
   2 H :    0.127769
   3 H :    0.128019
   4 C :   -0.114259
   5 O :   -0.141380
   6 H :    0.066817
   7 N :   -0.233363
   8 C :   -0.066100
   9 H :    0.068100
  10 H :    0.075140
  11 C :   -0.206353
  12 H :    0.062159
  13 C :   -0.197065
  14 H :    0.080637
  15 H :    0.061566
  16 H :    0.062797
  17 H :    0.065091
  18 H :    0.069013
  19 H :    0.082761
  20 H :    0.181921
  21 O :   -0.224064

-------------------------------
LOEWDIN REDUCED ORBITAL CHARGES
-------------------------------
  0 C s       :     2.881820  s :     2.881820
      pz      :     1.018865  p :     3.037265
      px      :     0.972558
      py      :     1.045842
      dz2     :     0.022331  d :     0.130483
      dxz     :     0.028662
      dyz     :     0.030095
      dx2y2   :     0.025810
      dxy     :     0.023585

  1 C s       :     2.859224  s :     2.859224
      pz      :     0.958373  p :     2.743402
      px      :     0.942436
      py      :     0.842593
      dz2     :     0.057518  d :     0.297013
      dxz     :     0.077397
      dyz     :     0.023110
      dx2y2   :     0.072895
      dxy     :     0.066094

  2 H s       :     0.793346  s :     0.793346
      pz      :     0.022266  p :     0.078884
      px      :     0.016739
      py      :     0.039879

  3 H s       :     0.792758  s :     0.792758
      pz      :     0.033274  p :     0.079223
      px      :     0.023404
      py      :     0.022546

  4 C s       :     2.905788  s :     2.905788
      pz      :     1.057529  p :     3.127940
      px      :     1.062728
      py      :     1.007683
      dz2     :     0.010573  d :     0.080531
      dxz     :     0.020900
      dyz     :     0.018237
      dx2y2   :     0.012402
      dxy     :     0.018419

  5 O s       :     3.470152  s :     3.470152
      pz      :     1.454011  p :     4.620278
      px      :     1.555203
      py      :     1.611065
      dz2     :     0.009745  d :     0.050949
      dxz     :     0.010334
      dyz     :     0.008508
      dx2y2   :     0.012488
      dxy     :     0.009874

  6 H s       :     0.893585  s :     0.893585
      pz      :     0.014074  p :     0.039598
      px      :     0.010773
      py      :     0.014751

  7 N s       :     3.195713  s :     3.195713
      pz      :     1.531805  p :     3.979806
      px      :     1.133338
      py      :     1.314663
      dz2     :     0.006378  d :     0.057844
      dxz     :     0.018770
      dyz     :     0.004335
      dx2y2   :     0.013032
      dxy     :     0.015329

  8 C s       :     2.880130  s :     2.880130
      pz      :     1.025254  p :     3.085381
      px      :     1.030514
      py      :     1.029613
      dz2     :     0.014062  d :     0.100589
      dxz     :     0.022769
      dyz     :     0.025640
      dx2y2   :     0.011867
      dxy     :     0.026251

  9 H s       :     0.892115  s :     0.892115
      pz      :     0.012271  p :     0.039785
      px      :     0.014385
      py      :     0.013129

 10 H s       :     0.884554  s :     0.884554
      pz      :     0.013755  p :     0.040305
      px      :     0.019119
      py      :     0.007431

 11 C s       :     2.918663  s :     2.918663
      pz      :     1.071094  p :     3.224053
      px      :     1.063714
      py      :     1.089244
      dz2     :     0.008995  d :     0.063637
      dxz     :     0.014629
      dyz     :     0.015266
      dx2y2   :     0.005517
      dxy     :     0.019230

 12 H s       :     0.898225  s :     0.898225
      pz      :     0.019725  p :     0.039616
      px      :     0.009026
      py      :     0.010864

 13 C s       :     2.919771  s :     2.919771
      pz      :     1.085927  p :     3.212967
      px      :     1.064450
      py      :     1.062590
      dz2     :     0.005803  d :     0.064327
      dxz     :     0.014214
      dyz     :     0.018617
      dx2y2   :     0.008735
      dxy     :     0.016958

 14 H s       :     0.873912  s :     0.873912
      pz      :     0.008072  p :     0.045451
      px      :     0.016496
      py      :     0.020883

 15 H s       :     0.898906  s :     0.898906
      pz      :     0.012173  p :     0.039528
      px      :     0.011680
      py      :     0.015675

 16 H s       :     0.898994  s :     0.898994
      pz      :     0.013275  p :     0.038209
      px      :     0.011195
      py      :     0.013739

 17 H s       :     0.895447  s :     0.895447
      pz      :     0.011015  p :     0.039462
      px      :     0.019025
      py      :     0.009422

 18 H s       :     0.891385  s :     0.891385
      pz      :     0.018745  p :     0.039602
      px      :     0.008728
      py      :     0.012130

 19 H s       :     0.877849  s :     0.877849
      pz      :     0.015333  p :     0.039391
      px      :     0.012501
      py      :     0.011557

 20 H s       :     0.702307  s :     0.702307
      pz      :     0.057703  p :     0.115772
      px      :     0.020773
      py      :     0.037296

 21 O s       :     3.554565  s :     3.554565
      pz      :     1.582982  p :     4.611462
      px      :     1.545912
      py      :     1.482568
      dz2     :     0.008319  d :     0.058037
      dxz     :     0.019129
      dyz     :     0.004533
      dx2y2   :     0.013632
      dxy     :     0.012425



                      *****************************
                      * MAYER POPULATION ANALYSIS *
                      *****************************

  NA   - Mulliken gross atomic population
  ZA   - Total nuclear charge
  QA   - Mulliken gross atomic charge
  VA   - Mayer's total valence
  BVA  - Mayer's bonded valence
  FA   - Mayer's free valence

  ATOM       NA         ZA         QA         VA         BVA        FA
  0 C      6.0449     6.0000    -0.0449     3.8613     3.8613     0.0000
  1 C      5.5198     6.0000     0.4802     3.9605     3.9605     0.0000
  2 H      0.7554     1.0000     0.2446     0.9226     0.9226     0.0000
  3 H      0.7535     1.0000     0.2465     0.9292     0.9292    -0.0000
  4 C      6.1768     6.0000    -0.1768     3.8610     3.8610    -0.0000
  5 O      8.4542     8.0000    -0.4542     2.0298     2.0298    -0.0000
  6 H      0.8968     1.0000     0.1032     0.9584     0.9584    -0.0000
  7 N      7.5448     7.0000    -0.5448     2.9339     2.9339    -0.0000
  8 C      6.0685     6.0000    -0.0685     3.9408     3.9408    -0.0000
  9 H      0.9024     1.0000     0.0976     0.9599     0.9599    -0.0000
 10 H      0.8839     1.0000     0.1161     0.9598     0.9598     0.0000
 11 C      6.3232     6.0000    -0.3232     3.8633     3.8633     0.0000
 12 H      0.9097     1.0000     0.0903     0.9576     0.9576     0.0000
 13 C      6.3196     6.0000    -0.3196     3.8851     3.8851     0.0000
 14 H      0.8548     1.0000     0.1452     0.9724     0.9724     0.0000
 15 H      0.9104     1.0000     0.0896     0.9618     0.9618    -0.0000
 16 H      0.9105     1.0000     0.0895     0.9513     0.9513    -0.0000
 17 H      0.9002     1.0000     0.0998     0.9567     0.9567    -0.0000
 18 H      0.8958     1.0000     0.1042     0.9574     0.9574    -0.0000
 19 H      0.8741     1.0000     0.1259     0.9514     0.9514     0.0000
 20 H      0.6821     1.0000     0.3179     0.9176     0.9176     0.0000
 21 O      8.4186     8.0000    -0.4186     2.1155     2.1155    -0.0000

  Mayer bond orders larger than 0.100000
B(  0-C ,  1-C ) :   0.8952 B(  0-C ,  4-C ) :   0.9747 B(  0-C ,  7-N ) :   1.0455 
B(  0-C , 19-H ) :   0.9221 B(  1-C ,  5-O ) :   1.0787 B(  1-C , 21-O ) :   1.9315 
B(  2-H ,  7-N ) :   0.9061 B(  3-H ,  7-N ) :   0.8998 B(  4-C ,  8-C ) :   0.9936 
B(  4-C ,  9-H ) :   0.9388 B(  4-C , 10-H ) :   0.9380 B(  5-O , 20-H ) :   0.8514 
B(  6-H , 13-C ) :   0.9590 B(  8-C , 11-C ) :   1.0152 B(  8-C , 13-C ) :   1.0062 
B(  8-C , 16-H ) :   0.9422 B( 11-C , 12-H ) :   0.9583 B( 11-C , 14-H ) :   0.9328 
B( 11-C , 15-H ) :   0.9605 B( 13-C , 17-H ) :   0.9594 B( 13-C , 18-H ) :   0.9592 


-------
TIMINGS
-------

Total SCF time: 0 days 0 hours 0 min 4 sec 

Total time                  ....       4.810 sec
Sum of individual times     ....       4.392 sec  ( 91.3%)

SCF preparation             ....       0.027 sec  (  0.6%)
Fock matrix formation       ....       4.313 sec  ( 89.7%)
  Startup                   ....       0.001 sec  (  0.0% of F)
  Split-RI-J                ....       1.562 sec  ( 36.2% of F)
  XC integration            ....       3.157 sec  ( 73.2% of F)
    Basis function eval.    ....       1.084 sec  ( 34.3% of XC)
    Density eval.           ....       0.713 sec  ( 22.6% of XC)
    XC-Functional eval.     ....       0.559 sec  ( 17.7% of XC)
    XC-Potential eval.      ....       0.722 sec  ( 22.9% of XC)
Diagonalization             ....       0.000 sec  (  0.0%)
Density matrix formation    ....       0.003 sec  (  0.1%)
Total Energy calculation    ....       0.001 sec  (  0.0%)
Population analysis         ....       0.003 sec  (  0.1%)
Orbital Transformation      ....       0.006 sec  (  0.1%)
Orbital Orthonormalization  ....       0.000 sec  (  0.0%)
DIIS solution               ....       0.032 sec  (  0.7%)
SOSCF solution              ....       0.007 sec  (  0.1%)
Finished LeanSCF after   4.8 sec

Maximum memory used throughout the entire LEANSCF-calculation: 21.2 MB



-------------------------------------------------------------------------------
                          DFT DISPERSION CORRECTION                            
-------------------------------------------------------------------------------
Active option DFTDOPT                   ...         2   
Final C6-coefficient scaling factor     ...     1.250
Final VDW-radii scaling factor          ...     1.100
Damping factor alpha                    ...    20.000
-------------------------   ----------------
Dispersion correction           -0.033078374
-------------------------   ----------------


-------------------------   --------------------
FINAL SINGLE POINT ENERGY      -441.404145023597
-------------------------   --------------------


------------------------------------------------------------------------------
                              ORCA PROPERTY CALCULATIONS
------------------------------------------------------------------------------

GBWName                                 ... 1.gbw
Number of atoms                         ...     22
Number of basis functions               ...    191
Max core memory                         ...   4096 MB

Electric properties:
Dipole moment                           ... YES
Quadrupole moment                       ...  NO
Static polarizability (Dipole/Dipole)   ...  NO
Static polarizability (Dipole/Quad.)    ...  NO
Static polarizability (Quad./Quad.)     ...  NO
Static polarizability (Velocity)        ...  NO
Static hyperpolarizability              ...  NO

Atomic electric properties:
Dipole moment                           ...  NO
Quadrupole moment                       ...  NO
Static polarizability                   ...  NO

Choice of electric origin               ... Center of mass
Position of electric origin             ...   -17.530175    10.548601    -2.748190

General magnetic properties:
Magnetizability                         ...  NO

EPR properties:
g-Tensor (aka g-matrix)                 ...  NO
Zero-Field splitting spin-orbit         ...  NO
Zero-field splitting spin-spin          ...  NO
Hyperfine couplings                     ...  NO (   0 nuclei)
Quadrupole couplings                    ...  NO (   0 nuclei)
Contact density                         ...  NO (   0 nuclei)

NMR properties:
Chemical shifts                         ...  NO (   0 nuclei)
Spin-rotation constants                 ...  NO (   0 nuclei)
Spin-spin couplings                     ...  NO (   0 nuclei,    0 pairs)

Choice of magnetic origin               ... GIAO
Position of magnetic origin             ...     0.000000     0.000000     0.000000

Properties with geometric perturbations:
SCF Hessian                             ...  NO
IR spectrum                             ...  NO
VCD spectrum                            ...  NO
X-ray spectroscopy properties:
SCF XES/XAS/RIXS spectra                ...  NO

SCF SOC stabilization energy            ...  NO
Diagonal Born-Oppenheimer correction    ...  NO

-------------
DIPOLE MOMENT
-------------

Method             : SCF
Type of density    : Electron Density
Multiplicity       :   1
Irrep              :   0
Energy             :  -441.3710666495031205 Eh
Basis              : AO
                                X                 Y                 Z
Electronic contribution:      2.907682646      11.711179004       7.786725193
Nuclear contribution   :     -3.342137530     -11.452429706      -7.584117268
                        -----------------------------------------
Total Dipole Moment    :     -0.434454884       0.258749298       0.202607925
                        -----------------------------------------
Magnitude (a.u.)       :      0.544749683
Magnitude (Debye)      :      1.384643655



--------------------
Rotational spectrum 
--------------------
 
Rotational constants in cm-1:             0.094441             0.030162             0.024642 
Rotational constants in MHz :          2831.273356           904.227491           738.751063 

Dipole components along the rotational axes: 
x,y,z [a.u.] :    -0.202144    -0.469267    -0.188888 
x,y,z [Debye]:    -0.513810    -1.192781    -0.480115 

 

Dipole moment calculation done in   0.0 sec 

Maximum memory used throughout the entire PROP-calculation: 12.0 MB

--------------------------------
SUGGESTED CITATIONS FOR THIS RUN
--------------------------------

Below you find a list of papers that are relevant to this ORCA run
We neither can nor want to force you to cite these papers, but we appreciate if you do
You receive ORCA, which is the product of decades of hard work by many enthusiastic individuals, for free
The only thing we kindly ask in return is that you cite our papers,
We deeply appreciate it, if you show your appreciation for ORCA by not just citing the generic ORCA reference.

Please note that relegating all ORCA citations to the supporting information does *not* help us.
SI sections are not indexed - citations you put there will not count into any citation statistics
But we need these citations in order to attract the funding resources that allow us to do what we are doing

Therefore, if you are a happy ORCA user, please consider citing a few of the papers listed below in the main body of your paper

In addition to the list printed below, the program has created the file 1.bibtex that contains the list in bibtex format
You can import this file easily into all common literature databanks and citation aid programs


List of essential papers. We consider these as the minimum necessary citations

  1. Neese, F.
     Software update: the ORCA program system, version 6.0
     WIRES Comput. Molec. Sci. 2025 15(1), e70019
     doi.org/10.1002/wcms.7019

List of papers to cite with high priority. The work reported in these papers was absolutely
necessary for this run to complete.
Our perspective: the developers of density functionals and basis sets usually get cited in chemistry papers
Good! But without the algorithms to do something with them, the functionals or basis sets would not do anything.
Hence, in our opinion, the algorithm design and method developments papers are equally worthy of getting cited

  1. Neese, F.
     An improvement of the resolution of the identity approximation for the formation of the Coulomb matrix
     J. Comp. Chem. 2003 24(14), 1740-1747
     doi.org/10.1002/jcc.10318
  2. Grimme, S.
     Semiempirical GGA-type density functional constructed with a long-range dispersion correction
     J.Comput.Chem. 2006 27(15), 1787-1799
     doi.org/10.1002/jcc.20495
  3. Neese, F.
     The SHARK Integral Generation and Digestion System
     J. Comp. Chem. 2022 44(3), 381
     doi.org/10.1002/jcc.26942

List of suggested additional citations. These are papers that are important in the 'surrounding' of 
of this run, or papers that preceded the highly important papers. If you like your results we are grateful for a citation.

  1. Neese, F.
     The ORCA program system
     WIRES Comput. Molec. Sci. 2012 2(1), 73-78
     doi.org/10.1002/wcms.81
  2. Neese, F.
     Software update: the ORCA program system, version 4.0
     WIRES Comput. Molec. Sci. 2018 8(1), 1-6
     doi.org/10.1002/wcms.1327
  3. Neese, F.; Wennmohs, F.; Becker, U.; Riplinger, C.
     The ORCA quantum chemistry program package
     J. Chem. Phys. 2020 152(22), 224108
     doi.org/10.1063/5.0004608
  4. Neese, F.
     Software update: The ORCA program system—Version 5.0
     WIRES Comput. Molec. Sci. 2022 12(1), e1606
     doi.org/10.1002/wcms.1606

List of optional additional citations

  1. Neese, F.
     Approximate second-order SCF convergence for spin unrestricted wavefunctions
     Chem. Phys. Lett. 2000 325(1-3), 93-98
     doi.org/10.1016/s0009-2614(00)00662-x

Timings for individual modules:

Sum of individual times          ...        5.622 sec (=   0.094 min)
Startup calculation              ...        0.460 sec (=   0.008 min)   8.2 %
SCF iterations                   ...        5.127 sec (=   0.085 min)  91.2 %
Property calculations            ...        0.035 sec (=   0.001 min)   0.6 %
                             ****ORCA TERMINATED NORMALLY****
TOTAL RUN TIME: 0 days 0 hours 0 minutes 5 seconds 662 msec
