
                                 *****************
                                 * O   R   C   A *
                                 *****************

                                            #,                                       
                                            ###                                      
                                            ####                                     
                                            #####                                    
                                            ######                                   
                                           ########,                                 
                                     ,,################,,,,,                         
                               ,,#################################,,                 
                          ,,##########################################,,             
                       ,#########################################, ''#####,          
                    ,#############################################,,   '####,        
                  ,##################################################,,,,####,       
                ,###########''''           ''''###############################       
              ,#####''   ,,,,##########,,,,          '''####'''          '####       
            ,##' ,,,,###########################,,,                        '##       
           ' ,,###''''                  '''############,,,                           
         ,,##''                                '''############,,,,        ,,,,,,###''
      ,#''                                            '''#######################'''  
     '                                                          ''''####''''         
             ,#######,   #######,   ,#######,      ##                                
            ,#'     '#,  ##    ##  ,#'     '#,    #''#        ,####,    ,#,          
            ##       ##  ##   ,#'  ##            #'  '#       #'       ,# #          
            ##       ##  #######   ##           ,######,      #####,      #          
            '#,     ,#'  ##    ##  '#,     ,#' ,#      #,     #,   #      #          
             '#######'   ##     ##  '#######'  #'      '#     '####' #    #          



                #########################################################
                #                        -***-                          #
                #          Department of theory and spectroscopy        #
                #                                                       #
                #                      Frank Neese                      #
                #                                                       #
                #     Directorship, Architecture, Infrastructure        #
                #                    SHARK, DRIVERS                     #
                #        Core code/Algorithms in most modules           #
                #                                                       #
                #        Max Planck Institute fuer Kohlenforschung      #
                #                Kaiser Wilhelm Platz 1                 #
                #                 D-45470 Muelheim/Ruhr                 #
                #                      Germany                          #
                #                                                       #
                #                  All rights reserved                  #
                #                        -***-                          #
                #########################################################


                         Program Version 6.1.0  -  RELEASE   -
                                (GIT: $679e74b$)
                          ($2025-06-10 18:02:51 +0200$)


 With contributions from (in alphabetic order):
[Max-Planck-Institut fuer Kohlenforschung]                               
  Daniel Aravena         : Magnetic Suceptibility                        
  Michael Atanasov       : Ab Initio Ligand Field Theory (pilot matlab implementation)
  Alexander A. Auer      : GIAO ZORA, VPT2 properties, NMR spectrum      
  Ute Becker             : All parallelization in ORCA, NUMFREQ, NUMCALC 
  Giovanni Bistoni       : ED, misc. LED, open-shell LED, HFLD           
  Dmytro Bykov           : pre 5.0 version of the SCF Hessian            
  Marcos Casanova-Páez   : Triplet and SCS-CIS(D). UHF-(DLPNO)-IP/EA/STEOM-CCSD. UHF-CVS-IP/STEOM-CCSD   
  Vijay G. Chilkuri      : MRCI spin determinant printing, contributions to CSF-ICE 
  Pauline Colinet        : FMM embedding                                 
  Dipayan Datta          : RHF DLPNO-CCSD density                        
  Achintya Kumar Dutta   : EOM-CC, STEOM-CC                              
  Nicolas Foglia         : Exact transition moments, OPA infrastructure, MCD improvements    
  Dmitry Ganyushin       : Spin-Orbit,Spin-Spin,Magnetic field MRCI      
  Miquel Garcia-Rates    : C-PCM and meta-GGA Hessian, CCSD/C-PCM, Gaussian charge scheme 
  Tiago L. C. Gouveia    : GS-ROHF, GS-ROCIS                             
  Yang Guo               : DLPNO-NEVPT2, F12-NEVPT2, CIM, IAO-localization        
  Andreas Hansen         : Spin unrestricted coupled pair/coupled cluster methods 
  Ingolf Harden          : AUTO-CI MPn and infrastructure                
  Benjamin Helmich-Paris : MC-RPA, TRAH-(SCF,CASSCF), AVAS, COSX integrals, SCF dyn. polar., MC-PDFT, srDFT 
  Lee Huntington         : MR-EOM, pCC                                   
  Robert Izsak           : Overlap fitted RIJCOSX, COSX-SCS-MP3, EOM     
  Riya Kayal             : Wick's Theorem for AUTO-CI, AUTO-CI UHF-CCSDT 
  Emily Kempfer          : AUTO-CI RHF CISDT and CCSDT, approximate NEVPT4
  Christian Kollmar      : KDIIS, OOCD, Brueckner-CCSD(T), CCSD density, CASPT2, CASPT2-K, improved NEVPT2 
  Axel Koslowski         : Symmetry handling                             
  Simone Kossmann        : meta-GGA functionals, TD-DFT gradient, OOMP2, (MP2 Hessian; deprecated post 5.0) 
  Lucas Lang             : DCDCAS, Hyperfine gauge corrections, ICE-SOC+SSC
  Marvin Lechner         : AUTO-CI (C++ implementation), FIC-MRCC        
  Spencer Leger          : CASSCF response                               
  Dagmar Lenk            : GEPOL surface, SMD, ORCA-2-JSON               
  Dimitrios Liakos       : Extrapolation schemes; Compound Job, Property file
  Dimitrios Manganas     : Further ROCIS development; embedding schemes. LFT, Crystal Embedding 
  Dimitrios Pantazis     : SARC Basis sets                               
  Anastasios Papadopoulos: AUTO-CI, single reference methods and gradients 
  Taras Petrenko         : pre 6.0 DFT Hessian and TD-DFT gradient,  ECA, NRVS 
  Petra Pikulova         : Analytic Raman intensities                    
  Peter Pinski           : DLPNO-MP2, DLPNO-MP2 Gradient                 
  Shashank Vittal Rao    : ES-AILFT, MagRelax                            
  Christoph Reimann      : Effective Core Potentials                     
  Marius Retegan         : Local ZFS, SOC                                
  Christoph Riplinger    : Optimizer, TS searches, QM/MM, DLPNO-CCSD(T), (RO)-DLPNO pert. Triples 
  Michael Roemelt        : Original ROCIS implementation, recursive CI coupling coefficients
  Masaaki Saitow         : Open-shell DLPNO-CCSD energy and density      
  Barbara Sandhoefer     : DKH picture change effects                    
  Yorick L. A. Schmerwitz: GMF and freeze-and-release deltaSCF, NEB S-IDPP initial path                    
  Kantharuban Sivalingam : CASSCF convergence/infrastructure, NEVPT2, NEVPT3, NEVPT4(SD), FIC-MRCI and CEPA variants
  Bernardo de Souza      : ESD, SOC TD-DFT                               
  Georgi L. Stoychev     : AutoAux, RI-MP2 NMR, DLPNO-MP2 response, X2C  
  Van Anh Tran           : RI-MP2 g-tensors                              
  Willem Van den Heuvel  : Paramagnetic NMR                              
  Zikuan Wang            : NOTCH, Electric field optimization            
  Frank Wennmohs         : Technical directorship and infrastructure     
  Hang Xu                : AUTO-CI-Response properties                   
                                                                         
[FACCTs GmbH]                                                            
  Markus Bursch, Nicolas Foglia, Miquel Garcia-Rates, Ingolf Harden, Hagen Neugebauer, Anastasios Papadopoulos, 
  Christoph Riplinger, Bernardo de Souza, Georgi L. Stoychev                                                    
                                                                 
  APM, various basis sets, CI-OPT, improved COSX, DLPNO-Multilevel,           
  DOCKER, DRACO, updates on ESD, Fragmentator, GOAT, IRC, LR-CPCM, L-BFGS, MBIS, meta-GGA TD-DFT gradient, ML-optimized integration grids, 
  MM, NACMEs, nearIR, NEB, NEB-TS, NL-DFT gradient (VV10), 2- and 3-layer-ONIOM, interface openCOSMO-RS, QMMM,   
  Crystal-QMMM, RESP, rigid body optimization, SF, symmetry and pop. for TD-DFT, various functionals, SOLVATOR                                   
                                                                         
[Other institutions]                                                     
  V. Asgeirsson          : NEB                                           
  Christoph Bannwarth    : sTDA-DFT, sTD-DFT, PBEh-3c, B97-3c, D3        
  Giovanni Bistoni       : ETS/NOCV, ADLD/ADEX, COVALED                  
  Martin Brehm           : Molecular dynamics                            
  Ronald Cardenas        : ETS/NOCV                                      
  Martina Colucci        : COVALED                                       
  Sebastian Ehlert       : rSCAN, r2SCAN, r2SCAN-3c, D4, dhf basis sets  
  Marvin Friede          : D4 for Fr, Ra, Ac-Lr                          
  Lars Goerigk           : TD-DFT with DH, B97 family of functionals     
  Stefan Grimme          : VdW corrections, initial TS optimization, DFT functionals, gCP, sTDA/sTD-DF 
  Waldemar Hujo          : DFT-NL                                        
  H. Jonsson             : NEB                                           
  Holger Kruse           : gCP                                           
  Marcel Mueller         : wB97X-3c, vDZP basis set                      
  Hagen Neugebauer       : wr2SCAN, Native XTB                           
  Gianluca Regni         : ADLD/ADEX                                     
  Tobias Risthaus        : pre 6.0 range-separated hybrid DFT and stability analysis
  Lukas Wittmann         : regularized MP2, r2SCAN double-hybrids, wr2SCAN        
                                                                         
We gratefully acknowledge several colleagues who have allowed us to      
interface, adapt or use parts of their codes:                            
  Ed Valeev, F. Pavosevic, A. Kumar             : LibInt (2-el integral package), F12 methods 
  Garnet Chan, S. Sharma, J. Yang, R. Olivares  : DMRG                   
  Ulf Ekstrom                                   : XCFun DFT Library      
  Mihaly Kallay                                 : mrcc  (arbitrary order and MRCC methods)
  Frank Weinhold                                : gennbo (NPA and NBO analysis)           
  Simon Mueller                                 : openCOSMO-RS                            
  Christopher J. Cramer and Donald G. Truhlar   : smd solvation model                     
  S Lehtola, MJT Oliveira, MAL Marques          : LibXC Library                           
  Liviu Ungur et al                             : ANISO software                          


 Your calculation uses the libint2 library for the computation of 2-el integrals
 For citations please refer to: http://libint.valeyev.net

 Your ORCA version has been built with support for libXC version: 7.0.0
 For citations please refer to: https://libxc.gitlab.io

 This ORCA versions uses:
   CBLAS   interface :  Fast vector & matrix operations
   LAPACKE interface :  Fast linear algebra routines
   SCALAPACK package :  Parallel linear algebra routines
   Shared memory     :  Shared parallel matrices
   BLAS/LAPACK       :  OpenBLAS 0.3.29  USE64BITINT DYNAMIC_ARCH NO_AFFINITY Haswell SINGLE_THREADED
        Core in use  :  Haswell
   Copyright (c) 2011-2014, The OpenBLAS Project


  ***********************************
  * Starting time: Sat Aug 30 13:01:42 2025
  * Host name:     chemlab03
  * Process ID:    72689
  * Working dir.:  /home/vivek/mm-project/vivek/xtb-goat/B97-D-opt/a/1
  ***********************************



***************************************
The coordinates will be read from file: /home/vivek/mm-project/vivek/xtb-goat/xtb-goat/a/A_CONF/1.xyz
***************************************


Your calculation utilizes empirical dispersion correction


Warning: RI is on but no J-basis has been assigned. Assigning Def2/J (nothing to worry about!)
================================================================================

----- Orbital basis set information -----
Your calculation utilizes the basis: 6-31G**
   H-He, Li-Ne : W. J. Hehre, R. Ditchfield and J.A. Pople, J. Chem. Phys. 56, 2257 (1972).
                 Note: He and Ne are unpublished basis sets taken from the Gaussian program.
                 Note: Li and B from J. D. Dill and J. A. Pople, J. Chem. Phys. 62, 2921 (1975).
   Na - Ar     : M. M. Francl, W. J. Pietro, W. J. Hehre, J. S. Binkley, M. S. Gordon, 
                 D. J. DeFrees and J. A. Pople, J. Chem. Phys. 77, 3654 (1982).
   K - Zn      : V. A. Rassolov, J. A. Pople, M. A. Ratner, and T. L. Windus, J. Chem. Phys. 109, 1223 (1998).

----- AuxJ basis set information -----
Your calculation utilizes the auxiliary basis: def2/J
   H-Rn: F. Weigend, Phys. Chem. Chem. Phys. 8, 1057 (2006).
   Fr-Lr: K. Eichkorn, F. Weigend, O. Treutler, R. Ahlrichs; Theor. Chem. Acc. 97, 119 (1997).

================================================================================
                                        WARNINGS
                       Please study these warnings very carefully!
================================================================================


WARNING: Geometry Optimization
  ===> : Switching off AutoStart
         For restart on a previous wavefunction, please use MOREAD

INFO   : The exchange functional is Grimme's B97(-D)
         As described in S. Grimme, J. Comput. Chem. 27, 1787 (2006).
         Note that this functional defaults to a pure GGA. 

INFO   : The correlation functional is Grimme's B97(-D)
         As described in S. Grimme, J. Comput. Chem. 27, 1787 (2006).

================================================================================
                                       INPUT FILE
================================================================================
NAME = 1.inp
|  1> ! B97-D 6-31G** opt
|  2> 
|  3> * xyzfile 0 1 /home/vivek/mm-project/vivek/xtb-goat/xtb-goat/a/A_CONF/1.xyz
|  4> 
|  5>                          ****END OF INPUT****
================================================================================

                       *****************************
                       * Geometry Optimization Run *
                       *****************************

Geometry optimization settings:
Update method            Update   .... BFGS
Choice of coordinates    CoordSys .... (2022) Redundant Internals
Initial Hessian          InHess   .... Almloef's Model
Max. no of cycles        MaxIter  .... 50

Convergence Tolerances:
Energy Change            TolE     ....  5.0000e-06 Eh
Max. Gradient            TolMAXG  ....  3.0000e-04 Eh/bohr
RMS Gradient             TolRMSG  ....  1.0000e-04 Eh/bohr
Max. Displacement        TolMAXD  ....  4.0000e-03 bohr
RMS Displacement         TolRMSD  ....  2.0000e-03 bohr
Strict Convergence                .... False

------------------------------------------------------------------------------
                        ORCA OPTIMIZATION COORDINATE SETUP
------------------------------------------------------------------------------

The optimization will be done in redundant internal coordinates (2022)
Making redundant internal coordinates   ...  (2022 redundants) done
Evaluating the initial hessian          ...  (Almloef) done
Evaluating the coordinates              ...  done
Calculating the B-matrix                .... done
Calculating the G-matrix                .... done
The number of degrees of freedom        ....   49

    -----------------------------------------------------------------
                    Redundant Internal Coordinates


    -----------------------------------------------------------------
         Definition                    Initial Value    Approx d2E/dq
    -----------------------------------------------------------------
      1. B(O   1,C   0)                  1.2016         1.118018   
      2. B(O   2,C   0)                  1.3414         0.669043   
      3. B(C   3,C   0)                  1.5270         0.377712   
      4. B(H   4,O   2)                  0.9699         0.501396   
      5. B(C   5,C   3)                  1.5324         0.370316   
      6. B(H   6,C   5)                  1.0857         0.365816   
      7. B(N   7,C   3)                  1.4473         0.453333   
      8. B(H   8,C   5)                  1.0861         0.365257   
      9. B(H   9,C   5)                  1.0881         0.362626   
     10. B(H  10,C   3)                  1.0969         0.351026   
     11. B(H  11,N   7)                  1.0146         0.425468   
     12. B(H  12,N   7)                  1.0138         0.426713   
     13. A(O   1,C   0,C   3)          124.9530         0.438586   
     14. A(O   2,C   0,C   3)          112.6347         0.400231   
     15. A(O   1,C   0,O   2)          122.4078         0.483606   
     16. A(C   0,O   2,H   4)          110.2455         0.372659   
     17. A(C   0,C   3,H  10)          106.9148         0.323547   
     18. A(C   0,C   3,N   7)          115.2244         0.373986   
     19. A(C   0,C   3,C   5)          107.7372         0.363491   
     20. A(C   5,C   3,N   7)          109.8597         0.372713   
     21. A(N   7,C   3,H  10)          108.1855         0.331427   
     22. A(C   5,C   3,H  10)          108.7322         0.322500   
     23. A(H   8,C   5,H   9)          109.0829         0.291811   
     24. A(H   6,C   5,H   9)          108.7151         0.291881   
     25. A(C   3,C   5,H   6)          109.1292         0.324691   
     26. A(C   3,C   5,H   9)          110.1924         0.324224   
     27. A(H   6,C   5,H   8)          109.6284         0.292213   
     28. A(C   3,C   5,H   8)          110.0713         0.324610   
     29. A(H  11,N   7,H  12)          107.5957         0.301768   
     30. A(C   3,N   7,H  12)          110.8439         0.339428   
     31. A(C   3,N   7,H  11)          110.1783         0.339262   
     32. D(H   4,O   2,C   0,O   1)     -0.5652         0.033243   
     33. D(H   4,O   2,C   0,C   3)    178.6924         0.033243   
     34. D(N   7,C   3,C   0,O   1)   -167.0545         0.010654   
     35. D(N   7,C   3,C   0,O   2)     13.7102         0.010654   
     36. D(C   5,C   3,C   0,O   2)   -109.3109         0.010654   
     37. D(H  10,C   3,C   0,O   1)    -46.7994         0.010654   
     38. D(C   5,C   3,C   0,O   1)     69.9244         0.010654   
     39. D(H   8,C   5,C   3,H  10)     58.7945         0.010961   
     40. D(H   8,C   5,C   3,N   7)    177.0156         0.010961   
     41. D(H   8,C   5,C   3,C   0)    -56.7380         0.010961   
     42. D(H   6,C   5,C   3,H  10)    -61.5550         0.010961   
     43. D(H   6,C   5,C   3,N   7)     56.6661         0.010961   
     44. D(H   6,C   5,C   3,C   0)   -177.0875         0.010961   
     45. D(H  11,N   7,C   3,C   5)     61.1679         0.017535   
     46. D(H  11,N   7,C   3,C   0)    -60.7170         0.017535   
     47. D(H  12,N   7,C   3,C   5)   -179.8497         0.017535   
     48. D(H  12,N   7,C   3,C   0)     58.2654         0.017535   
     49. D(H  11,N   7,C   3,H  10)    179.7266         0.017535   
    -----------------------------------------------------------------

Number of atoms                         .... 13
Number of degrees of freedom            .... 49


         *************************************************************
         *                GEOMETRY OPTIMIZATION CYCLE   1            *
         *************************************************************
---------------------------------
CARTESIAN COORDINATES (ANGSTROEM)
---------------------------------
  C     -4.774106    0.286799   -1.677803
  O     -4.789824    1.418438   -1.274071
  O     -3.635029   -0.350095   -1.987892
  C     -6.012271   -0.575345   -1.913156
  H     -2.874221    0.234318   -1.845321
  C     -6.757267   -0.001936   -3.123274
  H     -7.670608   -0.567741   -3.279627
  N     -5.752873   -1.984435   -2.117921
  H     -7.000129    1.042556   -2.950845
  H     -6.140404   -0.081030   -4.016123
  H     -6.648129   -0.469741   -1.025561
  H     -5.168878   -2.117394   -2.936866
  H     -5.261982   -2.379965   -1.323963

----------------------------
CARTESIAN COORDINATES (A.U.)
----------------------------
  NO LB      ZA    FRAG     MASS         X           Y           Z
   0 C     6.0000    0    12.011   -9.021753    0.541971   -3.170588
   1 O     8.0000    0    15.999   -9.051457    2.680459   -2.407646
   2 O     8.0000    0    15.999   -6.869209   -0.661584   -3.756572
   3 C     6.0000    0    12.011  -11.361545   -1.087245   -3.615341
   4 H     1.0000    0     1.008   -5.431490    0.442798   -3.487150
   5 C     6.0000    0    12.011  -12.769385   -0.003659   -5.902132
   6 H     1.0000    0     1.008  -14.495349   -1.072874   -6.197597
   7 N     7.0000    0    14.007  -10.871354   -3.750039   -4.002290
   8 H     1.0000    0     1.008  -13.228327    1.970145   -5.576289
   9 H     1.0000    0     1.008  -11.603682   -0.153124   -7.589372
  10 H     1.0000    0     1.008  -12.563143   -0.887682   -1.938030
  11 H     1.0000    0     1.008   -9.767764   -4.001295   -5.549873
  12 H     1.0000    0     1.008   -9.943705   -4.497482   -2.501928

--------------------------------
INTERNAL COORDINATES (ANGSTROEM)
--------------------------------
 C      0   0   0     0.000000000000     0.00000000     0.00000000
 O      1   0   0     1.201604375585     0.00000000     0.00000000
 O      1   2   0     1.341374740331   122.40776840     0.00000000
 C      1   2   3     1.527001870354   124.95297509   180.83598259
 H      3   1   2     0.969894414252   110.24552991   359.43477244
 C      4   1   2     1.532384683089   107.73723676    69.92439090
 H      6   4   1     1.085713011201   109.12923124   182.91249506
 N      4   1   2     1.447325014293   115.22442030   192.94551066
 H      6   4   1     1.086129213180   110.07131932   303.26203341
 H      6   4   1     1.088097415801   110.19244117    63.60994580
 H      4   1   2     1.096946973714   106.91483265   313.20062247
 H      8   4   1     1.014593169825   110.17825276   299.28299166
 H      8   4   1     1.013797773462   110.84394607    58.26542045

---------------------------
INTERNAL COORDINATES (A.U.)
---------------------------
 C      0   0   0     0.000000000000     0.00000000     0.00000000
 O      1   0   0     2.270703191176     0.00000000     0.00000000
 O      1   2   0     2.534830902185   122.40776840     0.00000000
 C      1   2   3     2.885615340954   124.95297509   180.83598259
 H      3   1   2     1.832834821757   110.24552991   359.43477244
 C      4   1   2     2.895787382854   107.73723676    69.92439090
 H      6   4   1     2.051700251205   109.12923124   182.91249506
 N      4   1   2     2.735047903787   115.22442030   192.94551066
 H      6   4   1     2.052486758961   110.07131932   303.26203341
 H      6   4   1     2.056206122892   110.19244117    63.60994580
 H      4   1   2     2.072929363754   106.91483265   313.20062247
 H      8   4   1     1.917303228317   110.17825276   299.28299166
 H      8   4   1     1.915800147022   110.84394607    58.26542045

---------------------
BASIS SET INFORMATION
---------------------
There are 4 groups of distinct atoms

 Group   1 Type C   : 10s4p1d contracted to 3s2p1d pattern {631/31/1}
 Group   2 Type O   : 10s4p1d contracted to 3s2p1d pattern {631/31/1}
 Group   3 Type H   : 4s1p contracted to 2s1p pattern {31/1}
 Group   4 Type N   : 10s4p1d contracted to 3s2p1d pattern {631/31/1}

Atom   0C    basis set group =>   1
Atom   1O    basis set group =>   2
Atom   2O    basis set group =>   2
Atom   3C    basis set group =>   1
Atom   4H    basis set group =>   3
Atom   5C    basis set group =>   1
Atom   6H    basis set group =>   3
Atom   7N    basis set group =>   4
Atom   8H    basis set group =>   3
Atom   9H    basis set group =>   3
Atom  10H    basis set group =>   3
Atom  11H    basis set group =>   3
Atom  12H    basis set group =>   3
---------------------------------
AUXILIARY/J BASIS SET INFORMATION
---------------------------------
There are 4 groups of distinct atoms

 Group   1 Type C   : 12s5p4d2f1g contracted to 6s4p3d1f1g pattern {711111/2111/211/2/1}
 Group   2 Type O   : 12s5p4d2f1g contracted to 6s4p3d1f1g pattern {711111/2111/211/2/1}
 Group   3 Type H   : 5s2p1d contracted to 3s1p1d pattern {311/2/1}
 Group   4 Type N   : 12s5p4d2f1g contracted to 6s4p3d1f1g pattern {711111/2111/211/2/1}

Atom   0C    basis set group =>   1
Atom   1O    basis set group =>   2
Atom   2O    basis set group =>   2
Atom   3C    basis set group =>   1
Atom   4H    basis set group =>   3
Atom   5C    basis set group =>   1
Atom   6H    basis set group =>   3
Atom   7N    basis set group =>   4
Atom   8H    basis set group =>   3
Atom   9H    basis set group =>   3
Atom  10H    basis set group =>   3
Atom  11H    basis set group =>   3
Atom  12H    basis set group =>   3
------------------------------------------------------------------------------
                             ORCA STARTUP CALCULATIONS
                           -- RI-GTO INTEGRALS CHOSEN --
------------------------------------------------------------------------------
------------------------------------------------------------------------------
                   ___                                                        
                  /   \      - P O W E R E D   B Y -                         
                 /     \                                                     
                 |  |  |   _    _      __       _____    __    __             
                 |  |  |  | |  | |    /  \     |  _  \  |  |  /  |          
                  \  \/   | |  | |   /    \    | | | |  |  | /  /          
                 / \  \   | |__| |  /  /\  \   | |_| |  |  |/  /          
                |  |  |   |  __  | /  /__\  \  |    /   |      \           
                |  |  |   | |  | | |   __   |  |    \   |  |\   \          
                \     /   | |  | | |  |  |  |  | |\  \  |  | \   \       
                 \___/    |_|  |_| |__|  |__|  |_| \__\ |__|  \__/        
                                                                              
                      - O R C A' S   B I G   F R I E N D -                    
                                      &                                       
                       - I N T E G R A L  F E E D E R -                       
                                                                              
 v1 FN, 2020, v2 2021, v3 2022-2024                                           
------------------------------------------------------------------------------


----------------------
SHARK INTEGRAL PACKAGE
----------------------

Number of atoms                             ...     13
Number of basis functions                   ...    119
Number of shells                            ...     57
Maximum angular momentum                    ...      2
Integral batch strategy                     ... SHARK/LIBINT Hybrid
RI-J (if used) integral strategy            ... SPLIT-RIJ (Revised 2003 algorithm where possible)
Printlevel                                  ...      1
Contraction scheme used                     ... SEGMENTED contraction
Prescreening option                         ... SCHWARTZ
   Thresh                                   ... 2.500e-11
   Tcut                                     ... 2.500e-12
   Tpresel                                  ... 2.500e-12 
Coulomb Range Separation                    ... NOT USED
Exchange Range Separation                   ... NOT USED
Multipole approximations                    ... NOT USED
Finite Nucleus Model                        ... NOT USED
CABS basis                                  ... NOT available
Auxiliary Coulomb fitting basis             ... AVAILABLE
   # of basis functions in Aux-J            ...    371
   # of shells in Aux-J                     ...    125
   Maximum angular momentum in Aux-J        ...      4
Auxiliary J/K fitting basis                 ... NOT available
Auxiliary Correlation fitting basis         ... NOT available
Auxiliary 'external' fitting basis          ... NOT available

Checking pre-screening integrals            ... done (  0.0 sec) Dimension = 57
   => SHARK Basis and OBASIS are compatible. Storing Pre-screening
Shell pair information
Shell pair cut-off parameter TPreSel        ...   2.5e-12
Total number of shell pairs                 ...      1653
Shell pairs after pre-screening             ...      1603
Total number of primitive shell pairs       ...      8022
Primitive shell pairs kept                  ...      5583
          la=0 lb=0:    507 shell pairs
          la=1 lb=0:    586 shell pairs
          la=1 lb=1:    185 shell pairs
          la=2 lb=0:    190 shell pairs
          la=2 lb=1:    114 shell pairs
          la=2 lb=2:     21 shell pairs

Checking whether 4 symmetric matrices of dimension 119 fit in memory
:Max Core in MB      =   4096.00
 MB in use           =      5.54
 MB left             =   4090.46
 MB needed           =      0.22
 Data fit in memory  = YES
Calculating RI/J V-Matrix + Cholesky decomp.... done (  0.0 sec)
Calculating Nuclear repulsion               ... done (  0.0 sec) ENN=    250.507373616647 Eh

Diagonalization of the overlap matrix:
Smallest eigenvalue                        ... 3.518e-03
Time for diagonalization                   ...    0.001 sec
Threshold for overlap eigenvalues          ... 1.000e-07
Number of eigenvalues below threshold      ... 0
Time for construction of square roots      ...    0.000 sec
Total time needed                          ...    0.001 sec

-------------------
DFT GRID GENERATION
-------------------

General Integration Accuracy     IntAcc      ... 4.388
Radial Grid Type                 RadialGrid  ... OptM3 with GC (2021)
Angular Grid (max. ang.)         AngularGrid ... 4 (Lebedev-302)
Angular grid pruning method      GridPruning ... 4 (adaptive)
Weight generation scheme         WeightScheme... mBecke (2022)
Basis function cutoff            BFCut       ... 1.0000e-11
Integration weight cutoff        WCut        ... 1.0000e-14
Partially contracted basis set               ... off
Rotationally invariant grid construction     ... off
Angular grids for H and He will be reduced by one unit

Total number of grid points                  ...    58952
Total number of batches                      ...      927
Average number of points per batch           ...       63
Average number of grid points per atom       ...     4535
Grids setup in   0.2 sec
Initializing property integral containers    ... done (  0.0 sec)

SHARK setup successfully completed in   0.2 seconds

Maximum memory used throughout the entire STARTUP-calculation: 24.8 MB
-------------------------------------------------------------------------------
                                 ORCA GUESS
                   Start orbitals & Density for SCF / CASSCF
-------------------------------------------------------------------------------

------------
SCF SETTINGS
------------
Hamiltonian:
 Density Functional     Method          .... DFT(GTOs)
 Exchange Functional    Exchange        .... B97(D)
 Correlation Functional Correlation     .... B97(D)
 Gradients option       PostSCFGGA      .... off
 RI-approximation to the Coulomb term is turned on
   Number of AuxJ basis functions       .... 371


General Settings:
 Integral files         IntName         .... 1
 Hartree-Fock type      HFTyp           .... RHF
 Total Charge           Charge          ....    0
 Multiplicity           Mult            ....    1
 Number of Electrons    NEL             ....   48
 Basis Dimension        Dim             ....  119
 Nuclear Repulsion      ENuc            ....    250.5073736166 Eh

Convergence Acceleration:
 AO-DIIS                CNVDIIS         .... on
   Start iteration      DIISMaxIt       ....    12
   Startup error        DIISStart       ....  0.200000
   # of expansion vecs  DIISMaxEq       ....     5
   Bias factor          DIISBfac        ....   1.050
   Max. coefficient     DIISMaxC        ....  10.000
 MO-DIIS                CNVKDIIS        .... off
 Trust-Rad. Augm. Hess. CNVTRAH         .... auto
   Auto Start mean grad. ratio tolernc. ....  1.125000
   Auto Start start iteration           ....    50
   Auto Start num. interpolation iter.  ....    10
   Max. Number of Micro iterations      ....    24
   Max. Number of Macro iterations      .... Maxiter - #DIIS iter
   Number of Davidson start vectors     ....     2
   Converg. threshold    (grad. norm)   ....   1.000e-05
   Grad. Scal. Fac. for Micro threshold ....   0.100
   Minimum threshold for Micro iter.    ....   1.000e-02
   NR start threshold (gradient norm)   ....   1.000e-04
   Initial trust radius                 ....   0.400
   Minimum AH scaling param. (alpha)    ....   1.000
   Maximum AH scaling param. (alpha)    .... 1000.000
   Quad. conv. algorithm                .... NR
   White noise on init. David. guess    .... on
   Maximum white noise                  ....   0.010
   Pseudo random numbers                .... off
   Inactive MOs                         .... canonical
   Orbital update algorithm             .... Taylor
   Preconditioner                       .... Diag
   Full preconditioner red. dimension   ....   250
 SOSCF                 CNVSOSCF           .... on
   Start iteration     SOSCFMaxIt         ....   150
   Startup grad/error  SOSCFStart         ....  0.003300
   Hessian update      SOSCFHessUp        .... L-BFGS
   Autom. constraints  SOSCFAutoConstrain .... off
 Level Shifting         CNVShift        .... on
   Level shift para.    LevelShift      ....    0.2500
   Turn off err/grad.   ShiftErr        ....    0.0010
 Zerner damping         CNVZerner       .... off
 Static damping         CNVDamp         .... on
   Fraction old density DampFac         ....    0.7000
   Max. Damping (<1)    DampMax         ....    0.9800
   Min. Damping (>=0)   DampMin         ....    0.0000
   Turn off err/grad.   DampErr         ....    0.1000

SCF Procedure:
 Maximum # iterations   MaxIter         ....   125
 SCF integral mode      SCFMode         .... Direct
   Integral package                     .... SHARK and LIBINT hybrid scheme
 Reset frequency        DirectResetFreq ....    20
 Integral Threshold     Thresh          ....  2.500e-11 Eh
 Primitive CutOff       TCut            ....  2.500e-12 Eh

Convergence Tolerance:
 Convergence Check Mode ConvCheckMode   .... Total+1el-Energy
 Convergence forced     ConvForced      .... 0
 Energy Change          TolE            ....  1.000e-08 Eh
 1-El. energy change                    ....  1.000e-05 Eh
 Orbital Gradient       TolG            ....  1.000e-05
 Orbital Rotation angle TolX            ....  1.000e-05
 DIIS Error             TolErr          ....  5.000e-07

------------------------------
INITIAL GUESS: MODEL POTENTIAL
------------------------------
Loading Hartree-Fock densities                     ... done
Calculating cut-offs                               ... done
Initializing the effective Hamiltonian             ... done
Setting up the integral package (SHARK)            ... done
Starting the Coulomb interaction                   ... done (   0.0 sec)
Making the grid                                    ... done (   0.0 sec)
Mapping shells                                     ... done
Starting the XC term evaluation                    ... done (   0.0 sec)
  promolecular density results
     # of electrons  =     47.995056881
     EX              =    -39.858373305
     EC              =     -2.124122464
     EX+EC           =    -41.982495769
Transforming the Hamiltonian                       ... done (   0.0 sec)
Diagonalizing the Hamiltonian                      ... done (   0.0 sec)
Back transforming the eigenvectors                 ... done (   0.0 sec)
Now organizing SCF variables                       ... done
                      ------------------
                      INITIAL GUESS DONE (   0.1 sec)
                      ------------------
             **** ENERGY FILE WAS UPDATED (1.en.tmp) ****
Finished Guess after   0.1 sec
Maximum memory used throughout the entire GUESS-calculation: 9.4 MB

-------------------------------------------------------------------------------------------
                                      ORCA LEAN-SCF
                              memory conserving SCF solver
-------------------------------------------------------------------------------------------

----------------------------------------D-I-I-S--------------------------------------------
Iteration    Energy (Eh)           Delta-E    RMSDP     MaxDP     DIISErr   Damp  Time(sec)
-------------------------------------------------------------------------------------------
               ***  Starting incremental Fock matrix formation  ***
    1    -323.2670623032236108     0.00e+00  4.92e-03  1.08e-01  2.60e-01  0.700   0.2
    2    -323.3996811815859473    -1.33e-01  3.02e-03  5.74e-02  1.00e-01  0.700   0.2
                               ***Turning on AO-DIIS***
    3    -323.4388970301071140    -3.92e-02  1.11e-03  1.47e-02  2.75e-02  0.700   0.2
    4    -323.4651043855108128    -2.62e-02  1.44e-03  1.90e-02  1.41e-02  0.000   0.2
    5    -323.5264259045654853    -6.13e-02  5.09e-04  7.94e-03  1.02e-02  0.000   0.2
                              *** Initializing SOSCF ***
---------------------------------------S-O-S-C-F--------------------------------------
Iteration    Energy (Eh)           Delta-E    RMSDP     MaxDP     MaxGrad    Time(sec)
--------------------------------------------------------------------------------------
    6    -323.5270417901997462    -6.16e-04  1.83e-04  2.43e-03  2.99e-03     0.2
               *** Restarting incremental Fock matrix formation ***
    7    -323.5270870196544593    -4.52e-05  1.55e-04  3.44e-03  8.00e-04     0.2
    8    -323.5270672781725807     1.97e-05  9.06e-05  2.57e-03  2.24e-03     0.2
    9    -323.5270933346391757    -2.61e-05  5.29e-05  7.73e-04  2.26e-04     0.2
   10    -323.5270918426251683     1.49e-06  3.04e-05  4.46e-04  2.85e-04     0.2
   11    -323.5270944213073108    -2.58e-06  9.34e-06  2.02e-04  3.63e-05     0.2
   12    -323.5270943660187868     5.53e-08  5.50e-06  1.30e-04  5.83e-05     0.2
   13    -323.5270944605972545    -9.46e-08  1.29e-06  2.26e-05  6.29e-06     0.2
   14    -323.5270944618245039    -1.23e-09  7.29e-07  1.30e-05  8.04e-06     0.2
                 **** Energy Check signals convergence ****

               *****************************************************
               *                     SUCCESS                       *
               *           SCF CONVERGED AFTER  14 CYCLES          *
               *****************************************************

             **** ENERGY FILE WAS UPDATED (1.en.tmp) ****

----------------
TOTAL SCF ENERGY
----------------

Total Energy       :       -323.52709446154790 Eh           -8803.61981 eV

Components:
Nuclear Repulsion  :        250.50737361664747 Eh            6816.65219 eV
Electronic Energy  :       -574.03446807819523 Eh          -15620.27200 eV
One Electron Energy:       -937.42909117207603 Eh          -25508.74241 eV
Two Electron Energy:        363.39462309388074 Eh            9888.47041 eV

Virial components:
Potential Energy   :       -645.40479863862549 Eh          -17562.35742 eV
Kinetic Energy     :        321.87770417707759 Eh            8758.73762 eV
Virial Ratio       :          2.00512427627967

DFT components:
N(Alpha)           :       24.000011584054 electrons
N(Beta)            :       24.000011584054 electrons
N(Total)           :       48.000023168107 electrons
E(X)               :      -40.771903672435 Eh       
E(C)               :       -2.115686132859 Eh       
E(XC)              :      -42.887589805294 Eh       

---------------
SCF CONVERGENCE
---------------

  Last Energy change         ...    1.2272e-09  Tolerance :   1.0000e-08
  Last MAX-Density change    ...    1.2979e-05  Tolerance :   1.0000e-07
  Last RMS-Density change    ...    7.2877e-07  Tolerance :   5.0000e-09
  Last DIIS Error            ...    2.9926e-03  Tolerance :   5.0000e-07
  Last Orbital Gradient      ...    8.0383e-06  Tolerance :   1.0000e-05
  Last Orbital Rotation      ...    8.2005e-06  Tolerance :   1.0000e-05


----------------
ORBITAL ENERGIES
----------------

  NO   OCC          E(Eh)            E(eV) 
   0   2.0000     -18.814719      -511.9745 
   1   2.0000     -18.749445      -510.1983 
   2   2.0000     -13.986505      -380.5922 
   3   2.0000     -10.025596      -272.8103 
   4   2.0000      -9.949157      -270.7303 
   5   2.0000      -9.902947      -269.4729 
   6   2.0000      -1.019781       -27.7497 
   7   2.0000      -0.929031       -25.2802 
   8   2.0000      -0.816568       -22.2200 
   9   2.0000      -0.678253       -18.4562 
  10   2.0000      -0.604180       -16.4406 
  11   2.0000      -0.540593       -14.7103 
  12   2.0000      -0.451028       -12.2731 
  13   2.0000      -0.446966       -12.1626 
  14   2.0000      -0.415105       -11.2956 
  15   2.0000      -0.391676       -10.6580 
  16   2.0000      -0.383251       -10.4288 
  17   2.0000      -0.353135        -9.6093 
  18   2.0000      -0.329941        -8.9781 
  19   2.0000      -0.319784        -8.7018 
  20   2.0000      -0.314164        -8.5488 
  21   2.0000      -0.270161        -7.3515 
  22   2.0000      -0.240269        -6.5380 
  23   2.0000      -0.183832        -5.0023 
  24   0.0000      -0.015540        -0.4229 
  25   0.0000       0.045097         1.2271 
  26   0.0000       0.081020         2.2047 
  27   0.0000       0.108572         2.9544 
  28   0.0000       0.118210         3.2167 
  29   0.0000       0.146093         3.9754 
  30   0.0000       0.158760         4.3201 
  31   0.0000       0.161718         4.4006 
  32   0.0000       0.192467         5.2373 
  33   0.0000       0.196714         5.3529 
  34   0.0000       0.226668         6.1679 
*Only the first 10 virtual orbitals were printed.

                    ********************************
                    * MULLIKEN POPULATION ANALYSIS *
                    ********************************

-----------------------
MULLIKEN ATOMIC CHARGES
-----------------------
   0 C :    0.498282
   1 O :   -0.416569
   2 O :   -0.462187
   3 C :   -0.056427
   4 H :    0.318321
   5 C :   -0.325934
   6 H :    0.131956
   7 N :   -0.554638
   8 H :    0.134884
   9 H :    0.109511
  10 H :    0.138953
  11 H :    0.242022
  12 H :    0.241827
Sum of atomic charges:    0.0000000

--------------------------------
MULLIKEN REDUCED ORBITAL CHARGES
--------------------------------
  0 C s       :     2.993155  s :     2.993155
      pz      :     0.785188  p :     2.384305
      px      :     0.802816
      py      :     0.796300
      dz2     :     0.011628  d :     0.124258
      dxz     :     0.016257
      dyz     :     0.019675
      dx2y2   :     0.028250
      dxy     :     0.048449

  1 O s       :     3.854629  s :     3.854629
      pz      :     1.410166  p :     4.533866
      px      :     1.766984
      py      :     1.356716
      dz2     :     0.004242  d :     0.028075
      dxz     :     0.000935
      dyz     :     0.009296
      dx2y2   :     0.007062
      dxy     :     0.006539

  2 O s       :     3.820222  s :     3.820222
      pz      :     1.755047  p :     4.619136
      px      :     1.229539
      py      :     1.634550
      dz2     :     0.003393  d :     0.022829
      dxz     :     0.002768
      dyz     :     0.003376
      dx2y2   :     0.003416
      dxy     :     0.009877

  3 C s       :     3.205432  s :     3.205432
      pz      :     1.034369  p :     2.793272
      px      :     0.955089
      py      :     0.803814
      dz2     :     0.010366  d :     0.057723
      dxz     :     0.009193
      dyz     :     0.008782
      dx2y2   :     0.012246
      dxy     :     0.017137

  4 H s       :     0.643796  s :     0.643796
      pz      :     0.009338  p :     0.037883
      px      :     0.015665
      py      :     0.012881

  5 C s       :     3.256315  s :     3.256315
      pz      :     0.961730  p :     3.040488
      px      :     1.029522
      py      :     1.049236
      dz2     :     0.007215  d :     0.029131
      dxz     :     0.007965
      dyz     :     0.002726
      dx2y2   :     0.005970
      dxy     :     0.005255

  6 H s       :     0.856476  s :     0.856476
      pz      :     0.002538  p :     0.011568
      px      :     0.005300
      py      :     0.003730

  7 N s       :     3.580681  s :     3.580681
      pz      :     1.152109  p :     3.945678
      px      :     1.578040
      py      :     1.215530
      dz2     :     0.002529  d :     0.028279
      dxz     :     0.011035
      dyz     :     0.004106
      dx2y2   :     0.006964
      dxy     :     0.003645

  8 H s       :     0.853533  s :     0.853533
      pz      :     0.002562  p :     0.011583
      px      :     0.002708
      py      :     0.006313

  9 H s       :     0.878854  s :     0.878854
      pz      :     0.005283  p :     0.011635
      px      :     0.003647
      py      :     0.002705

 10 H s       :     0.850188  s :     0.850188
      pz      :     0.005170  p :     0.010859
      px      :     0.003897
      py      :     0.001793

 11 H s       :     0.733999  s :     0.733999
      pz      :     0.009620  p :     0.023979
      px      :     0.009041
      py      :     0.005319

 12 H s       :     0.734231  s :     0.734231
      pz      :     0.008894  p :     0.023941
      px      :     0.008350
      py      :     0.006697



                     *******************************
                     * LOEWDIN POPULATION ANALYSIS *
                     *******************************

----------------------
LOEWDIN ATOMIC CHARGES
----------------------
   0 C :    0.101877
   1 O :   -0.220838
   2 O :   -0.147120
   3 C :   -0.049805
   4 H :    0.181229
   5 C :   -0.187034
   6 H :    0.081118
   7 N :   -0.250651
   8 H :    0.082890
   9 H :    0.070360
  10 H :    0.088697
  11 H :    0.124410
  12 H :    0.124866

-------------------------------
LOEWDIN REDUCED ORBITAL CHARGES
-------------------------------
  0 C s       :     2.862326  s :     2.862326
      pz      :     0.808771  p :     2.739348
      px      :     0.934847
      py      :     0.995731
      dz2     :     0.026290  d :     0.296449
      dxz     :     0.035573
      dyz     :     0.045404
      dx2y2   :     0.067842
      dxy     :     0.121340

  1 O s       :     3.553380  s :     3.553380
      pz      :     1.410308  p :     4.609076
      px      :     1.743091
      py      :     1.455678
      dz2     :     0.007556  d :     0.058382
      dxz     :     0.001806
      dyz     :     0.017326
      dx2y2   :     0.018531
      dxy     :     0.013163

  2 O s       :     3.472414  s :     3.472414
      pz      :     1.722736  p :     4.623808
      px      :     1.264446
      py      :     1.636627
      dz2     :     0.007233  d :     0.050898
      dxz     :     0.006829
      dyz     :     0.004114
      dx2y2   :     0.010175
      dxy     :     0.022547

  3 C s       :     2.881402  s :     2.881402
      pz      :     1.065062  p :     3.037022
      px      :     1.030338
      py      :     0.941622
      dz2     :     0.023346  d :     0.131381
      dxz     :     0.020651
      dyz     :     0.018031
      dx2y2   :     0.027733
      dxy     :     0.041620

  4 H s       :     0.702663  s :     0.702663
      pz      :     0.026874  p :     0.116108
      px      :     0.048351
      py      :     0.040883

  5 C s       :     2.920891  s :     2.920891
      pz      :     1.039238  p :     3.203886
      px      :     1.074915
      py      :     1.089733
      dz2     :     0.015367  d :     0.062257
      dxz     :     0.017860
      dyz     :     0.006320
      dx2y2   :     0.011746
      dxy     :     0.010965

  6 H s       :     0.878428  s :     0.878428
      pz      :     0.007337  p :     0.040454
      px      :     0.020665
      py      :     0.012451

  7 N s       :     3.190926  s :     3.190926
      pz      :     1.174403  p :     4.001532
      px      :     1.567320
      py      :     1.259809
      dz2     :     0.007887  d :     0.058193
      dxz     :     0.017990
      dyz     :     0.011407
      dx2y2   :     0.014195
      dxy     :     0.006716

  8 H s       :     0.876474  s :     0.876474
      pz      :     0.007412  p :     0.040636
      px      :     0.008107
      py      :     0.025117

  9 H s       :     0.889906  s :     0.889906
      pz      :     0.019696  p :     0.039734
      px      :     0.012627
      py      :     0.007411

 10 H s       :     0.872891  s :     0.872891
      pz      :     0.019102  p :     0.038412
      px      :     0.014050
      py      :     0.005260

 11 H s       :     0.796323  s :     0.796323
      pz      :     0.033708  p :     0.079267
      px      :     0.030333
      py      :     0.015226

 12 H s       :     0.796107  s :     0.796107
      pz      :     0.031173  p :     0.079027
      px      :     0.027431
      py      :     0.020422



                      *****************************
                      * MAYER POPULATION ANALYSIS *
                      *****************************

  NA   - Mulliken gross atomic population
  ZA   - Total nuclear charge
  QA   - Mulliken gross atomic charge
  VA   - Mayer's total valence
  BVA  - Mayer's bonded valence
  FA   - Mayer's free valence

  ATOM       NA         ZA         QA         VA         BVA        FA
  0 C      5.5017     6.0000     0.4983     3.9455     3.9455    -0.0000
  1 O      8.4166     8.0000    -0.4166     2.0954     2.0954     0.0000
  2 O      8.4622     8.0000    -0.4622     2.0538     2.0538    -0.0000
  3 C      6.0564     6.0000    -0.0564     3.8928     3.8928    -0.0000
  4 H      0.6817     1.0000     0.3183     0.9184     0.9184     0.0000
  5 C      6.3259     6.0000    -0.3259     3.8725     3.8725     0.0000
  6 H      0.8680     1.0000     0.1320     0.9556     0.9556     0.0000
  7 N      7.5546     7.0000    -0.5546     2.8874     2.8874    -0.0000
  8 H      0.8651     1.0000     0.1349     0.9563     0.9563    -0.0000
  9 H      0.8905     1.0000     0.1095     0.9570     0.9570     0.0000
 10 H      0.8610     1.0000     0.1390     0.9458     0.9458     0.0000
 11 H      0.7580     1.0000     0.2420     0.9277     0.9277    -0.0000
 12 H      0.7582     1.0000     0.2418     0.9224     0.9224     0.0000

  Mayer bond orders larger than 0.100000
B(  0-C ,  1-O ) :   1.9060 B(  0-C ,  2-O ) :   1.0960 B(  0-C ,  3-C ) :   0.9027 
B(  2-O ,  4-H ) :   0.8521 B(  3-C ,  5-C ) :   0.9962 B(  3-C ,  7-N ) :   1.0370 
B(  3-C , 10-H ) :   0.9325 B(  5-C ,  6-H ) :   0.9537 B(  5-C ,  8-H ) :   0.9519 
B(  5-C ,  9-H ) :   0.9587 B(  7-N , 11-H ) :   0.9043 B(  7-N , 12-H ) :   0.9100 


-------
TIMINGS
-------

Total SCF time: 0 days 0 hours 0 min 3 sec 

Total time                  ....       3.230 sec
Sum of individual times     ....       3.003 sec  ( 93.0%)

SCF preparation             ....       0.026 sec  (  0.8%)
Fock matrix formation       ....       2.953 sec  ( 91.4%)
  Startup                   ....       0.000 sec  (  0.0% of F)
  Split-RI-J                ....       0.765 sec  ( 25.9% of F)
  XC integration            ....       2.368 sec  ( 80.2% of F)
    XC Preparation          ....       0.000 sec  (  0.0% of XC)
    Basis function eval.    ....       0.822 sec  ( 34.7% of XC)
    Density eval.           ....       0.449 sec  ( 19.0% of XC)
    XC-Functional eval.     ....       0.539 sec  ( 22.8% of XC)
    XC-Potential eval.      ....       0.489 sec  ( 20.6% of XC)
Diagonalization             ....       0.000 sec  (  0.0%)
Density matrix formation    ....       0.002 sec  (  0.1%)
Total Energy calculation    ....       0.000 sec  (  0.0%)
Population analysis         ....       0.001 sec  (  0.0%)
Orbital Transformation      ....       0.002 sec  (  0.1%)
Orbital Orthonormalization  ....       0.000 sec  (  0.0%)
DIIS solution               ....       0.009 sec  (  0.3%)
SOSCF solution              ....       0.007 sec  (  0.2%)
Finished LeanSCF after   3.2 sec

Maximum memory used throughout the entire LEANSCF-calculation: 12.9 MB



-------------------------------------------------------------------------------
                          DFT DISPERSION CORRECTION                            
-------------------------------------------------------------------------------
Active option DFTDOPT                   ...         2   
Final C6-coefficient scaling factor     ...     1.250
Final VDW-radii scaling factor          ...     1.100
Damping factor alpha                    ...    20.000
-------------------------   ----------------
Dispersion correction           -0.013333985
-------------------------   ----------------


-------------------------   --------------------
FINAL SINGLE POINT ENERGY      -323.540428446861
-------------------------   --------------------

------------------------------------------------------------------------------
                         ORCA SCF GRADIENT CALCULATION
------------------------------------------------------------------------------

Nuc. rep. gradient        (SHARK) ... done (  0.0 sec)
HCore & Overlap gradient  (SHARK) ... done (  0.0 sec)
Split-RIJ-J gradient      (SHARK) ... done (  0.2 sec)
XC gradient                       ... done (  1.1 sec)
Dispersion correction             ... done (  0.0 sec)

-------------------
DISPERSION GRADIENT
-------------------

   1   C   :   -0.000028530    0.000066098    0.000481264
   2   O   :    0.001100921   -0.000013901    0.000187490
   3   O   :    0.000077494    0.000179534    0.000210749
   4   C   :   -0.000051454    0.000313413   -0.000979219
   5   H   :   -0.000171888    0.000385838    0.000164323
   6   C   :   -0.000270970   -0.000147471    0.000440483
   7   H   :    0.000411935    0.000905684   -0.000428586
   8   N   :    0.000564179    0.000619283    0.000596414
   9   H   :   -0.000391798   -0.000861268   -0.000899300
  10   H   :   -0.001279720    0.000601191    0.000053743
  11   H   :   -0.000016466   -0.000105447    0.000094700
  12   H   :    0.000102424   -0.001025772    0.000228238
  13   H   :   -0.000046126   -0.000917183   -0.000150298

Difference to translation invariance:
           :   -0.0000000000   -0.0000000000   -0.0000000000

Difference to rotation invariance:
           :   -0.0000000000    0.0000000000    0.0000000000

Norm of the Dispersion gradient    ...    0.0033255775
RMS gradient                       ...    0.0005325186
MAX gradient                       ...    0.0012797201

------------------
CARTESIAN GRADIENT
------------------

   1   C   :    0.004396075    0.006547377   -0.001138152
   2   O   :    0.003974956   -0.031729208   -0.011152859
   3   O   :   -0.016244141    0.022289068    0.009479766
   4   C   :   -0.002624631    0.003739997    0.002100906
   5   H   :    0.001316294   -0.006941952   -0.002232666
   6   C   :    0.001518233   -0.000515178   -0.003996478
   7   H   :    0.006605933    0.004400788    0.001496819
   8   N   :    0.011427076    0.011164598    0.001383549
   9   H   :    0.001227225   -0.007612381   -0.000187901
  10   H   :   -0.004678094    0.000354781    0.007049281
  11   H   :    0.000442094   -0.002363283   -0.002482461
  12   H   :   -0.003618616    0.000027632    0.001372206
  13   H   :   -0.003742406    0.000637759   -0.001692012

Difference to translation invariance:
           :   -0.0000000000    0.0000000000    0.0000000000

Difference to rotation invariance:
           :   -0.0002217348    0.0000782215   -0.0000223021

Norm of the Cartesian gradient     ...    0.0515506992
RMS gradient                       ...    0.0082547183
MAX gradient                       ...    0.0317292077

-------
TIMINGS
-------

Total SCF gradient time     ....        1.404 sec

Densities                   ....       0.000 sec  (  0.0%)
One electron gradient       ....       0.041 sec  (  2.9%)
RI-J Coulomb gradient       ....       0.234 sec  ( 16.7%)
XC gradient                 ....       1.129 sec  ( 80.4%)

Maximum memory used throughout the entire SCFGRAD-calculation: 16.9 MB
------------------------------------------------------------------------------
                         ORCA GEOMETRY RELAXATION STEP
------------------------------------------------------------------------------

Reading the OPT-File                    .... done
Getting information on internals        .... done
Copying old internal coords+grads       .... done
Making the new internal coordinates     .... (2022 redundants) done
Validating the new internal coordinates .... (2022 redundants) done
Calculating the B-matrix                .... done
Calculating the G,G- and P matrices     .... done
Transforming gradient to internals      .... done
Projecting the internal gradient        .... done
Number of atoms                         ....  13
Number of internal coordinates          ....  49
Current Energy                          ....  -323.540428447 Eh
Current gradient norm                   ....     0.051550699 Eh/bohr
Maximum allowed component of the step   ....  0.300
Current trust radius                    ....  0.300
Evaluating the initial hessian          ....  (Almloef) done
Projecting the Hessian                  .... done
Forming the augmented Hessian           .... done
Diagonalizing the augmented Hessian     .... done
Last element of RFO vector              ....  0.991877395
Lowest eigenvalues of augmented Hessian:
 -0.004390172  0.010664405  0.010966034  0.017082208  0.017536454
Length of the computed step             ....  0.128239252
The final length of the internal step   ....  0.128239252
Converting the step to Cartesian space:
 Initial RMS(Int)=    0.0183198931
Transforming coordinates:
 Iter   0:  RMS(Cart)=    0.0358981094 RMS(Int)=    0.8967919402
done
Storing new coordinates                 .... done

                                .--------------------.
          ----------------------|Geometry convergence|-------------------------
          Item                value                   Tolerance       Converged
          ---------------------------------------------------------------------
          RMS gradient        0.0070749983            0.0001000000      NO
          MAX gradient        0.0336813096            0.0003000000      NO
          RMS step            0.0183198931            0.0020000000      NO
          MAX step            0.0473407623            0.0040000000      NO
          -------------------------------------------------------------------------
          ........................................................
          Max(Bonds)      0.0170      Max(Angles)    1.91
          Max(Dihed)        2.71      Max(Improp)    0.00
          ---------------------------------------------------------------------

The optimization has not yet converged - more geometry cycles are needed


    ---------------------------------------------------------------------------
                         Redundant Internal Coordinates
                            (Angstroem and degrees)

        Definition                    Value    dE/dq     Step     New-Value
    ----------------------------------------------------------------------------
     1. B(O   1,C   0)                1.2016 -0.033681  0.0159    1.2175   
     2. B(O   2,C   0)                1.3414 -0.021643  0.0170    1.3584   
     3. B(C   3,C   0)                1.5270 -0.011651  0.0161    1.5431   
     4. B(H   4,O   2)                0.9699 -0.003478  0.0036    0.9735   
     5. B(C   5,C   3)                1.5324 -0.006977  0.0099    1.5422   
     6. B(H   6,C   5)                1.0857 -0.008068  0.0115    1.0972   
     7. B(N   7,C   3)                1.4473 -0.010933  0.0126    1.4600   
     8. B(H   8,C   5)                1.0861 -0.007622  0.0109    1.0970   
     9. B(H   9,C   5)                1.0881 -0.008463  0.0122    1.1003   
    10. B(H  10,C   3)                1.0969 -0.002494  0.0037    1.1007   
    11. B(H  11,N   7)                1.0146 -0.003187  0.0039    1.0185   
    12. B(H  12,N   7)                1.0138 -0.003391  0.0042    1.0180   
    13. A(O   1,C   0,C   3)          124.95  0.003815   -0.48    124.47   
    14. A(O   2,C   0,C   3)          112.63  0.000365   -0.04    112.59   
    15. A(O   1,C   0,O   2)          122.41 -0.004163    0.50    122.90   
    16. A(C   0,O   2,H   4)          110.25  0.011976   -1.82    108.43   
    17. A(C   0,C   3,H  10)          106.91  0.003063   -1.19    105.72   
    18. A(C   0,C   3,N   7)          115.22 -0.007211    1.91    117.13   
    19. A(C   0,C   3,C   5)          107.74  0.001682   -0.03    107.71   
    20. A(C   5,C   3,N   7)          109.86  0.002215    0.03    109.89   
    21. A(N   7,C   3,H  10)          108.19  0.000328   -0.24    107.95   
    22. A(C   5,C   3,H  10)          108.73  0.000223   -0.63    108.10   
    23. A(H   8,C   5,H   9)          109.08  0.000720   -0.20    108.88   
    24. A(H   6,C   5,H   9)          108.72  0.000330   -0.12    108.59   
    25. A(C   3,C   5,H   6)          109.13 -0.000019    0.04    109.17   
    26. A(C   3,C   5,H   9)          110.19  0.000013   -0.06    110.14   
    27. A(H   6,C   5,H   8)          109.63  0.000064    0.12    109.74   
    28. A(C   3,C   5,H   8)          110.07 -0.001092    0.22    110.29   
    29. A(H  11,N   7,H  12)          107.60  0.001295   -0.81    106.79   
    30. A(C   3,N   7,H  12)          110.84  0.000986   -0.42    110.43   
    31. A(C   3,N   7,H  11)          110.18  0.001131   -0.45    109.73   
    32. D(H   4,O   2,C   0,O   1)     -0.57 -0.000493    0.87      0.30   
    33. D(H   4,O   2,C   0,C   3)    178.69  0.000948   -1.56    177.13   
    34. D(N   7,C   3,C   0,O   1)   -167.05  0.000450    0.22   -166.83   
    35. D(N   7,C   3,C   0,O   2)     13.71 -0.000964    2.71     16.42   
    36. D(C   5,C   3,C   0,O   2)   -109.31 -0.000184    1.38   -107.93   
    37. D(H  10,C   3,C   0,O   1)    -46.80 -0.001439    0.25    -46.55   
    38. D(C   5,C   3,C   0,O   1)     69.92  0.001230   -1.11     68.82   
    39. D(H   8,C   5,C   3,H  10)     58.79  0.000521    0.19     58.98   
    40. D(H   8,C   5,C   3,N   7)    177.02  0.002332   -0.46    176.56   
    41. D(H   8,C   5,C   3,C   0)    -56.74 -0.004084    1.93    -54.81   
    42. D(H   6,C   5,C   3,H  10)    -61.56  0.001126   -0.11    -61.67   
    43. D(H   6,C   5,C   3,N   7)     56.67  0.002937   -0.76     55.91   
    44. D(H   6,C   5,C   3,C   0)   -177.09 -0.003479    1.63   -175.46   
    45. D(H  11,N   7,C   3,C   5)     61.17 -0.001944    1.14     62.30   
    46. D(H  11,N   7,C   3,C   0)    -60.72 -0.000708   -0.22    -60.94   
    47. D(H  12,N   7,C   3,C   5)   -179.85  0.001010   -0.41   -180.26   
    48. D(H  12,N   7,C   3,C   0)     58.27  0.002246   -1.77     56.50   
    49. D(H  11,N   7,C   3,H  10)    179.73 -0.000217    0.25    179.98   
    ----------------------------------------------------------------------------

Geometry step timings:
Preparation and reading OPT file:      0.000 s ( 1.866 %)
Internal coordinates            :      0.000 s ( 1.400 %)
B/P matrices and projection     :      0.000 s (35.459 %)
Hessian update/contruction      :      0.000 s (10.264 %)
Making the step                 :      0.000 s (26.750 %)
Converting the step to Cartesian:      0.000 s ( 4.044 %)
Storing new data                :      0.000 s ( 2.022 %)
Checking convergence            :      0.000 s ( 1.711 %)
Final printing                  :      0.000 s (16.485 %)
Total time                      :      0.001 s

Time for energy+gradient        :      5.085 s
Time for complete geometry iter :      5.102 s

         *************************************************************
         *                GEOMETRY OPTIMIZATION CYCLE   2            *
         *************************************************************
---------------------------------
CARTESIAN COORDINATES (ANGSTROEM)
---------------------------------
  C     -4.762051    0.289881   -1.656538
  O     -4.801682    1.436098   -1.248024
  O     -3.604099   -0.330094   -2.002920
  C     -6.004331   -0.588710   -1.913615
  H     -2.867963    0.290734   -1.859940
  C     -6.752575    0.001075   -3.126372
  H     -7.684525   -0.557082   -3.280896
  N     -5.779320   -2.017000   -2.115749
  H     -6.979262    1.060675   -2.955027
  H     -6.135289   -0.089010   -4.032740
  H     -6.643619   -0.468314   -1.025771
  H     -5.189143   -2.159715   -2.933489
  H     -5.281861   -2.414110   -1.321343

----------------------------
CARTESIAN COORDINATES (A.U.)
----------------------------
  NO LB      ZA    FRAG     MASS         X           Y           Z
   0 C     6.0000    0    12.011   -8.998972    0.547796   -3.130403
   1 O     8.0000    0    15.999   -9.073864    2.713832   -2.358424
   2 O     8.0000    0    15.999   -6.810760   -0.623787   -3.784970
   3 C     6.0000    0    12.011  -11.346541   -1.112501   -3.616207
   4 H     1.0000    0     1.008   -5.419665    0.549408   -3.514778
   5 C     6.0000    0    12.011  -12.760517    0.002031   -5.907988
   6 H     1.0000    0     1.008  -14.521648   -1.052732   -6.199995
   7 N     7.0000    0    14.007  -10.921333   -3.811577   -3.998185
   8 H     1.0000    0     1.008  -13.188894    2.004385   -5.584192
   9 H     1.0000    0     1.008  -11.594016   -0.168204   -7.620773
  10 H     1.0000    0     1.008  -12.554620   -0.884985   -1.938425
  11 H     1.0000    0     1.008   -9.806060   -4.081270   -5.543490
  12 H     1.0000    0     1.008   -9.981271   -4.562008   -2.496976

--------------------------------
INTERNAL COORDINATES (ANGSTROEM)
--------------------------------
 C      0   0   0     0.000000000000     0.00000000     0.00000000
 O      1   0   0     1.217483969786     0.00000000     0.00000000
 O      1   2   0     1.358381819335   122.88815547     0.00000000
 C      1   2   3     1.543136799826   124.45226563   183.56672150
 H      3   1   2     0.973533228369   108.42567887     0.30966928
 C      4   1   2     1.542237924901   107.68879794    68.81803965
 H      6   4   1     1.097245665488   109.16489798   184.53889360
 N      4   1   2     1.459965250675   117.12891518   193.18035831
 H      6   4   1     1.097040918607   110.29183287   305.18999592
 H      6   4   1     1.100299135448   110.13699759    65.39712874
 H      4   1   2     1.100659578892   105.71910640   313.44325409
 H      8   4   1     1.018516308323   109.72733152   299.05578915
 H      8   4   1     1.017960116858   110.42069631    56.49476609

---------------------------
INTERNAL COORDINATES (A.U.)
---------------------------
 C      0   0   0     0.000000000000     0.00000000     0.00000000
 O      1   0   0     2.300711275335     0.00000000     0.00000000
 O      1   2   0     2.566969623842   122.88815547     0.00000000
 C      1   2   3     2.916105938847   124.45226563   183.56672150
 H      3   1   2     1.839711183889   108.42567887     0.30966928
 C      4   1   2     2.914407311409   107.68879794    68.81803965
 H      6   4   1     2.073493809404   109.16489798   184.53889360
 N      4   1   2     2.758934488817   117.12891518   193.18035831
 H      6   4   1     2.073106893872   110.29183287   305.18999592
 H      6   4   1     2.079264031386   110.13699759    65.39712874
 H      4   1   2     2.079945170783   105.71910640   313.44325409
 H      8   4   1     1.924716885664   109.72733152   299.05578915
 H      8   4   1     1.923665836116   110.42069631    56.49476609

------------------------------------------------------------------------------
                   ___                                                        
                  /   \      - P O W E R E D   B Y -                         
                 /     \                                                     
                 |  |  |   _    _      __       _____    __    __             
                 |  |  |  | |  | |    /  \     |  _  \  |  |  /  |          
                  \  \/   | |  | |   /    \    | | | |  |  | /  /          
                 / \  \   | |__| |  /  /\  \   | |_| |  |  |/  /          
                |  |  |   |  __  | /  /__\  \  |    /   |      \           
                |  |  |   | |  | | |   __   |  |    \   |  |\   \          
                \     /   | |  | | |  |  |  |  | |\  \  |  | \   \       
                 \___/    |_|  |_| |__|  |__|  |_| \__\ |__|  \__/        
                                                                              
                      - O R C A' S   B I G   F R I E N D -                    
                                      &                                       
                       - I N T E G R A L  F E E D E R -                       
                                                                              
 v1 FN, 2020, v2 2021, v3 2022-2024                                           
------------------------------------------------------------------------------


----------------------
SHARK INTEGRAL PACKAGE
----------------------

Number of atoms                             ...     13
Number of basis functions                   ...    119
Number of shells                            ...     57
Maximum angular momentum                    ...      2
Integral batch strategy                     ... SHARK/LIBINT Hybrid
RI-J (if used) integral strategy            ... SPLIT-RIJ (Revised 2003 algorithm where possible)
Printlevel                                  ...      1
Contraction scheme used                     ... SEGMENTED contraction
Prescreening option                         ... SCHWARTZ
   Thresh                                   ... 2.500e-11
   Tcut                                     ... 2.500e-12
   Tpresel                                  ... 2.500e-12 
Coulomb Range Separation                    ... NOT USED
Exchange Range Separation                   ... NOT USED
Multipole approximations                    ... NOT USED
Finite Nucleus Model                        ... NOT USED
CABS basis                                  ... NOT available
Auxiliary Coulomb fitting basis             ... AVAILABLE
   # of basis functions in Aux-J            ...    371
   # of shells in Aux-J                     ...    125
   Maximum angular momentum in Aux-J        ...      4
Auxiliary J/K fitting basis                 ... NOT available
Auxiliary Correlation fitting basis         ... NOT available
Auxiliary 'external' fitting basis          ... NOT available

Checking pre-screening integrals            ... done (  0.0 sec) Dimension = 57
   => SHARK Basis and OBASIS are compatible. Storing Pre-screening
Shell pair information
Shell pair cut-off parameter TPreSel        ...   2.5e-12
Total number of shell pairs                 ...      1653
Shell pairs after pre-screening             ...      1602
Total number of primitive shell pairs       ...      8022
Primitive shell pairs kept                  ...      5568
          la=0 lb=0:    507 shell pairs
          la=1 lb=0:    586 shell pairs
          la=1 lb=1:    184 shell pairs
          la=2 lb=0:    190 shell pairs
          la=2 lb=1:    114 shell pairs
          la=2 lb=2:     21 shell pairs

Checking whether 4 symmetric matrices of dimension 119 fit in memory
:Max Core in MB      =   4096.00
 MB in use           =      5.65
 MB left             =   4090.35
 MB needed           =      0.22
 Data fit in memory  = YES
Calculating RI/J V-Matrix + Cholesky decomp.... done (  0.0 sec)
Calculating Nuclear repulsion               ... done (  0.0 sec) ENN=    247.844302619737 Eh

Diagonalization of the overlap matrix:
Smallest eigenvalue                        ... 3.875e-03
Time for diagonalization                   ...    0.001 sec
Threshold for overlap eigenvalues          ... 1.000e-07
Number of eigenvalues below threshold      ... 0
Time for construction of square roots      ...    0.000 sec
Total time needed                          ...    0.001 sec

-------------------
DFT GRID GENERATION
-------------------

General Integration Accuracy     IntAcc      ... 4.388
Radial Grid Type                 RadialGrid  ... OptM3 with GC (2021)
Angular Grid (max. ang.)         AngularGrid ... 4 (Lebedev-302)
Angular grid pruning method      GridPruning ... 4 (adaptive)
Weight generation scheme         WeightScheme... mBecke (2022)
Basis function cutoff            BFCut       ... 1.0000e-11
Integration weight cutoff        WCut        ... 1.0000e-14
Partially contracted basis set               ... off
Rotationally invariant grid construction     ... off
Angular grids for H and He will be reduced by one unit

Total number of grid points                  ...    58978
Total number of batches                      ...      928
Average number of points per batch           ...       63
Average number of grid points per atom       ...     4537
Grids setup in   0.2 sec
Initializing property integral containers    ... done (  0.0 sec)

SHARK setup successfully completed in   0.2 seconds

Maximum memory used throughout the entire STARTUP-calculation: 24.9 MB
Occupation numbers will be reassigned to an Aufbau configuration
             **** ENERGY FILE WAS UPDATED (1.en.tmp) ****
Finished Guess after   0.0 sec
Maximum memory used throughout the entire GUESS-calculation: 9.2 MB
----------------------------------------D-I-I-S--------------------------------------------
Iteration    Energy (Eh)           Delta-E    RMSDP     MaxDP     DIISErr   Damp  Time(sec)
-------------------------------------------------------------------------------------------
               ***  Starting incremental Fock matrix formation  ***
    1    -323.5281900904578833     0.00e+00  2.36e-04  2.96e-03  1.24e-02  0.700   0.2
    2    -323.5286299700768495    -4.40e-04  2.25e-04  2.98e-03  9.43e-03  0.700   0.2
                               ***Turning on AO-DIIS***
    3    -323.5289514514621487    -3.21e-04  1.75e-04  2.33e-03  6.77e-03  0.700   0.2
    4    -323.5291743404799263    -2.23e-04  4.32e-04  5.81e-03  4.78e-03  0.000   0.2
                              *** Initializing SOSCF ***
---------------------------------------S-O-S-C-F--------------------------------------
Iteration    Energy (Eh)           Delta-E    RMSDP     MaxDP     MaxGrad    Time(sec)
--------------------------------------------------------------------------------------
    5    -323.5296966144400130    -5.22e-04  2.92e-05  6.70e-04  6.09e-04     0.2
               *** Restarting incremental Fock matrix formation ***
    6    -323.5296975341043435    -9.20e-07  3.83e-05  1.15e-03  2.29e-04     0.2
    7    -323.5296951938777283     2.34e-06  2.79e-05  8.63e-04  7.40e-04     0.2
    8    -323.5296979922310356    -2.80e-06  1.16e-05  2.51e-04  5.02e-05     0.2
    9    -323.5296979000734154     9.22e-08  7.06e-06  1.59e-04  6.82e-05     0.2
   10    -323.5296980619070837    -1.62e-07  1.36e-06  2.71e-05  6.24e-06     0.2
   11    -323.5296980617462168     1.61e-10  7.85e-07  1.90e-05  8.59e-06     0.2
                 **** Energy Check signals convergence ****

               *****************************************************
               *                     SUCCESS                       *
               *           SCF CONVERGED AFTER  11 CYCLES          *
               *****************************************************

             **** ENERGY FILE WAS UPDATED (1.en.tmp) ****

----------------
TOTAL SCF ENERGY
----------------

Total Energy       :       -323.52969806284170 Eh           -8803.69066 eV

Components:
Nuclear Repulsion  :        247.84430261973731 Eh            6744.18634 eV
Electronic Energy  :       -571.37400068257898 Eh          -15547.87700 eV
One Electron Energy:       -932.14612756626775 Eh          -25364.98566 eV
Two Electron Energy:        360.77212688368877 Eh            9817.10866 eV

Virial components:
Potential Energy   :       -645.17359223340418 Eh          -17556.06598 eV
Kinetic Energy     :        321.64389417056242 Eh            8752.37532 eV
Virial Ratio       :          2.00586301784818

DFT components:
N(Alpha)           :       24.000008957865 electrons
N(Beta)            :       24.000008957865 electrons
N(Total)           :       48.000017915729 electrons
E(X)               :      -40.712291256337 Eh       
E(C)               :       -2.114338707384 Eh       
E(XC)              :      -42.826629963721 Eh       

---------------
SCF CONVERGENCE
---------------

  Last Energy change         ...   -1.6087e-10  Tolerance :   1.0000e-08
  Last MAX-Density change    ...    1.8967e-05  Tolerance :   1.0000e-07
  Last RMS-Density change    ...    7.8541e-07  Tolerance :   5.0000e-09
  Last DIIS Error            ...    6.0902e-04  Tolerance :   5.0000e-07
  Last Orbital Gradient      ...    8.5930e-06  Tolerance :   1.0000e-05
  Last Orbital Rotation      ...    6.4026e-06  Tolerance :   1.0000e-05


Total SCF time: 0 days 0 hours 0 min 2 sec 
Finished LeanSCF after   2.5 sec

Maximum memory used throughout the entire LEANSCF-calculation: 12.9 MB



-------------------------------------------------------------------------------
                          DFT DISPERSION CORRECTION                            
-------------------------------------------------------------------------------
-------------------------   ----------------
Dispersion correction           -0.013277381
-------------------------   ----------------


-------------------------   --------------------
FINAL SINGLE POINT ENERGY      -323.542975444132
-------------------------   --------------------

------------------------------------------------------------------------------
                         ORCA SCF GRADIENT CALCULATION
------------------------------------------------------------------------------

Nuc. rep. gradient        (SHARK) ... done (  0.0 sec)
HCore & Overlap gradient  (SHARK) ... done (  0.0 sec)
Split-RIJ-J gradient      (SHARK) ... done (  0.2 sec)
XC gradient                       ... done (  1.1 sec)
Dispersion correction             ... done (  0.0 sec)

-------------------
DISPERSION GRADIENT
-------------------

   1   C   :   -0.000070341    0.000016828    0.000467140
   2   O   :    0.001094684   -0.000063393    0.000170082
   3   O   :    0.000202275    0.000372070    0.000273490
   4   C   :   -0.000037940    0.000368258   -0.001036486
   5   H   :   -0.000180494    0.000355791    0.000166348
   6   C   :   -0.000261220   -0.000149388    0.000469734
   7   H   :    0.000521572    0.000964975   -0.000418613
   8   N   :    0.000455239    0.000637230    0.000608368
[...]
   7   2.0000      -0.926584       -25.2136 
   8   2.0000      -0.815422       -22.1888 
   9   2.0000      -0.678389       -18.4599 
  10   2.0000      -0.597810       -16.2672 
  11   2.0000      -0.535088       -14.5605 
  12   2.0000      -0.445463       -12.1217 
  13   2.0000      -0.443401       -12.0656 
  14   2.0000      -0.419362       -11.4114 
  15   2.0000      -0.388832       -10.5807 
  16   2.0000      -0.381072       -10.3695 
  17   2.0000      -0.356103        -9.6900 
  18   2.0000      -0.331791        -9.0285 
  19   2.0000      -0.321399        -8.7457 
  20   2.0000      -0.313294        -8.5252 
  21   2.0000      -0.272214        -7.4073 
  22   2.0000      -0.244172        -6.6443 
  23   2.0000      -0.192870        -5.2483 
  24   0.0000      -0.026163        -0.7119 
  25   0.0000       0.043323         1.1789 
  26   0.0000       0.079405         2.1607 
  27   0.0000       0.106978         2.9110 
  28   0.0000       0.114033         3.1030 
  29   0.0000       0.139949         3.8082 
  30   0.0000       0.153100         4.1661 
  31   0.0000       0.155647         4.2354 
  32   0.0000       0.172499         4.6939 
  33   0.0000       0.183848         5.0028 
  34   0.0000       0.215307         5.8588 
*Only the first 10 virtual orbitals were printed.

                    ********************************
                    * MULLIKEN POPULATION ANALYSIS *
                    ********************************

-----------------------
MULLIKEN ATOMIC CHARGES
-----------------------
   0 C :    0.500987
   1 O :   -0.421071
   2 O :   -0.472586
   3 C :   -0.048636
   4 H :    0.320001
   5 C :   -0.327963
   6 H :    0.134200
   7 N :   -0.554071
   8 H :    0.131625
   9 H :    0.112253
  10 H :    0.139341
  11 H :    0.244409
  12 H :    0.241510
Sum of atomic charges:    0.0000000

--------------------------------
MULLIKEN REDUCED ORBITAL CHARGES
--------------------------------
  0 C s       :     3.017075  s :     3.017075
      pz      :     0.772364  p :     2.364582
      px      :     0.799578
      py      :     0.792640
      dz2     :     0.015282  d :     0.117356
      dxz     :     0.020099
      dyz     :     0.017211
      dx2y2   :     0.024471
      dxy     :     0.040292

  1 O s       :     3.869328  s :     3.869328
      pz      :     1.408706  p :     4.524379
      px      :     1.757430
      py      :     1.358242
      dz2     :     0.005484  d :     0.027364
      dxz     :     0.001678
      dyz     :     0.008205
      dx2y2   :     0.006320
      dxy     :     0.005677

  2 O s       :     3.839651  s :     3.839651
      pz      :     1.730292  p :     4.609859
      px      :     1.258238
      py      :     1.621329
      dz2     :     0.003781  d :     0.023076
      dxz     :     0.003553
      dyz     :     0.003524
      dx2y2   :     0.003132
      dxy     :     0.009086

  3 C s       :     3.214624  s :     3.214624
      pz      :     1.029979  p :     2.778136
      px      :     0.947941
      py      :     0.800216
      dz2     :     0.009959  d :     0.055875
      dxz     :     0.009151
      dyz     :     0.008757
      dx2y2   :     0.011914
      dxy     :     0.016095

  4 H s       :     0.642588  s :     0.642588
      pz      :     0.009242  p :     0.037411
      px      :     0.014275
      py      :     0.013894

  5 C s       :     3.267873  s :     3.267873
      pz      :     0.957704  p :     3.031565
      px      :     1.032313
      py      :     1.041548
      dz2     :     0.007012  d :     0.028524
      dxz     :     0.007891
      dyz     :     0.002704
      dx2y2   :     0.006136
      dxy     :     0.004781

  6 H s       :     0.854521  s :     0.854521
      pz      :     0.002443  p :     0.011279
      px      :     0.005296
      py      :     0.003540

  7 N s       :     3.611044  s :     3.611044
      pz      :     1.155337  p :     3.913960
      px      :     1.560724
      py      :     1.197899
      dz2     :     0.002385  d :     0.029067
      dxz     :     0.011701
      dyz     :     0.003810
      dx2y2   :     0.007545
      dxy     :     0.003627

  8 H s       :     0.857096  s :     0.857096
      pz      :     0.002417  p :     0.011279
      px      :     0.002584
      py      :     0.006278

  9 H s       :     0.876452  s :     0.876452
      pz      :     0.005096  p :     0.011295
      px      :     0.003628
      py      :     0.002570

 10 H s       :     0.849899  s :     0.849899
      pz      :     0.005082  p :     0.010760
      px      :     0.003883
      py      :     0.001795

 11 H s       :     0.731967  s :     0.731967
      pz      :     0.009308  p :     0.023624
      px      :     0.009097
      py      :     0.005220

 12 H s       :     0.734925  s :     0.734925
      pz      :     0.009032  p :     0.023566
      px      :     0.008125
      py      :     0.006409



                     *******************************
                     * LOEWDIN POPULATION ANALYSIS *
                     *******************************

----------------------
LOEWDIN ATOMIC CHARGES
----------------------
   0 C :    0.124290
   1 O :   -0.227261
   2 O :   -0.168550
   3 C :   -0.047214
   4 H :    0.183385
   5 C :   -0.190104
   6 H :    0.083411
   7 N :   -0.255318
   8 H :    0.082612
   9 H :    0.072066
  10 H :    0.087953
  11 H :    0.127442
  12 H :    0.127288

-------------------------------
LOEWDIN REDUCED ORBITAL CHARGES
-------------------------------
  0 C s       :     2.878458  s :     2.878458
      pz      :     0.827015  p :     2.720818
      px      :     0.925857
      py      :     0.967945
      dz2     :     0.032353  d :     0.276434
      dxz     :     0.046276
      dyz     :     0.041856
      dx2y2   :     0.057139
      dxy     :     0.098810

  1 O s       :     3.568393  s :     3.568393
      pz      :     1.421384  p :     4.602839
      px      :     1.736791
      py      :     1.444664
      dz2     :     0.008093  d :     0.056028
      dxz     :     0.003167
      dyz     :     0.018558
      dx2y2   :     0.015349
      dxy     :     0.010860

  2 O s       :     3.499383  s :     3.499383
      pz      :     1.709872  p :     4.620881
      px      :     1.288759
      py      :     1.622251
      dz2     :     0.006824  d :     0.048285
      dxz     :     0.008821
      dyz     :     0.004607
      dx2y2   :     0.008518
      dxy     :     0.019516

  3 C s       :     2.891361  s :     2.891361
      pz      :     1.064870  p :     3.030138
      px      :     1.028567
      py      :     0.936701
      dz2     :     0.022424  d :     0.125715
      dxz     :     0.020278
      dyz     :     0.017785
      dx2y2   :     0.026853
      dxy     :     0.038375

  4 H s       :     0.702360  s :     0.702360
      pz      :     0.026558  p :     0.114255
      px      :     0.043941
      py      :     0.043756

  5 C s       :     2.931625  s :     2.931625
      pz      :     1.035789  p :     3.198114
      px      :     1.076279
      py      :     1.086046
      dz2     :     0.014907  d :     0.060365
      dxz     :     0.017351
      dyz     :     0.006258
      dx2y2   :     0.011997
      dxy     :     0.009853

  6 H s       :     0.877456  s :     0.877456
      pz      :     0.007001  p :     0.039133
      px      :     0.020513
      py      :     0.011620

  7 N s       :     3.218940  s :     3.218940
      pz      :     1.178593  p :     3.979047
      px      :     1.553894
      py      :     1.246560
      dz2     :     0.007276  d :     0.057331
      dxz     :     0.018648
      dyz     :     0.010346
      dx2y2   :     0.014758
      dxy     :     0.006303

  8 H s       :     0.878248  s :     0.878248
      pz      :     0.006841  p :     0.039140
      px      :     0.007547
      py      :     0.024752

  9 H s       :     0.889556  s :     0.889556
      pz      :     0.018910  p :     0.038378
      px      :     0.012496
      py      :     0.006971

 10 H s       :     0.873795  s :     0.873795
      pz      :     0.018821  p :     0.038253
      px      :     0.014063
      py      :     0.005368

 11 H s       :     0.795042  s :     0.795042
      pz      :     0.031926  p :     0.077516
      px      :     0.030906
      py      :     0.014684

 12 H s       :     0.795659  s :     0.795659
      pz      :     0.031257  p :     0.077053
      px      :     0.026742
      py      :     0.019054



                      *****************************
                      * MAYER POPULATION ANALYSIS *
                      *****************************

  NA   - Mulliken gross atomic population
  ZA   - Total nuclear charge
  QA   - Mulliken gross atomic charge
  VA   - Mayer's total valence
  BVA  - Mayer's bonded valence
  FA   - Mayer's free valence

  ATOM       NA         ZA         QA         VA         BVA        FA
  0 C      5.4990     6.0000     0.5010     3.9086     3.9086     0.0000
  1 O      8.4211     8.0000    -0.4211     2.0915     2.0915    -0.0000
  2 O      8.4726     8.0000    -0.4726     2.0392     2.0392     0.0000
  3 C      6.0486     6.0000    -0.0486     3.8826     3.8826     0.0000
  4 H      0.6800     1.0000     0.3200     0.9178     0.9178    -0.0000
  5 C      6.3280     6.0000    -0.3280     3.8655     3.8655     0.0000
  6 H      0.8658     1.0000     0.1342     0.9560     0.9560    -0.0000
  7 N      7.5541     7.0000    -0.5541     2.8854     2.8854     0.0000
  8 H      0.8684     1.0000     0.1316     0.9557     0.9557     0.0000
  9 H      0.8877     1.0000     0.1123     0.9573     0.9573    -0.0000
 10 H      0.8607     1.0000     0.1393     0.9463     0.9463     0.0000
 11 H      0.7556     1.0000     0.2444     0.9246     0.9246     0.0000
 12 H      0.7585     1.0000     0.2415     0.9194     0.9194     0.0000

  Mayer bond orders larger than 0.100000
B(  0-C ,  1-O ) :   1.8912 B(  0-C ,  2-O ) :   1.0737 B(  0-C ,  3-C ) :   0.9007 
B(  2-O ,  4-H ) :   0.8524 B(  3-C ,  5-C ) :   0.9907 B(  3-C ,  7-N ) :   1.0322 
B(  3-C , 10-H ) :   0.9324 B(  5-C ,  6-H ) :   0.9520 B(  5-C ,  8-H ) :   0.9526 
B(  5-C ,  9-H ) :   0.9570 B(  7-N , 11-H ) :   0.9014 B(  7-N , 12-H ) :   0.9092 


-------
TIMINGS
-------

Total SCF time: 0 days 0 hours 0 min 1 sec 

Total time                  ....       1.495 sec
Sum of individual times     ....       1.273 sec  ( 85.1%)

SCF preparation             ....       0.027 sec  (  1.8%)
Fock matrix formation       ....       1.227 sec  ( 82.1%)
  Startup                   ....       0.000 sec  (  0.0% of F)
  Split-RI-J                ....       0.350 sec  ( 28.6% of F)
  XC integration            ....       1.058 sec  ( 86.3% of F)
    Basis function eval.    ....       0.378 sec  ( 35.8% of XC)
    Density eval.           ....       0.205 sec  ( 19.4% of XC)
    XC-Functional eval.     ....       0.249 sec  ( 23.5% of XC)
    XC-Potential eval.      ....       0.196 sec  ( 18.5% of XC)
Diagonalization             ....       0.000 sec  (  0.0%)
Density matrix formation    ....       0.001 sec  (  0.1%)
Total Energy calculation    ....       0.000 sec  (  0.0%)
Population analysis         ....       0.011 sec  (  0.7%)
Orbital Transformation      ....       0.001 sec  (  0.1%)
Orbital Orthonormalization  ....       0.000 sec  (  0.0%)
DIIS solution               ....       0.001 sec  (  0.1%)
SOSCF solution              ....       0.005 sec  (  0.3%)
Finished LeanSCF after   1.5 sec

Maximum memory used throughout the entire LEANSCF-calculation: 13.5 MB



-------------------------------------------------------------------------------
                          DFT DISPERSION CORRECTION                            
-------------------------------------------------------------------------------
Active option DFTDOPT                   ...         2   
Final C6-coefficient scaling factor     ...     1.250
Final VDW-radii scaling factor          ...     1.100
Damping factor alpha                    ...    20.000
-------------------------   ----------------
Dispersion correction           -0.013296156
-------------------------   ----------------


-------------------------   --------------------
FINAL SINGLE POINT ENERGY      -323.543474184872
-------------------------   --------------------

                                *** OPTIMIZATION RUN DONE ***


------------------------------------------------------------------------------
                              ORCA PROPERTY CALCULATIONS
------------------------------------------------------------------------------

GBWName                                 ... 1.gbw
Number of atoms                         ...     13
Number of basis functions               ...    119
Max core memory                         ...   4096 MB

Electric properties:
Dipole moment                           ... YES
Quadrupole moment                       ...  NO
Static polarizability (Dipole/Dipole)   ...  NO
Static polarizability (Dipole/Quad.)    ...  NO
Static polarizability (Quad./Quad.)     ...  NO
Static polarizability (Velocity)        ...  NO
Static hyperpolarizability              ...  NO

Atomic electric properties:
Dipole moment                           ...  NO
Quadrupole moment                       ...  NO
Static polarizability                   ...  NO

Choice of electric origin               ... Center of mass
Position of electric origin             ...    -9.909088    -0.415618    -3.785094

General magnetic properties:
Magnetizability                         ...  NO

EPR properties:
g-Tensor (aka g-matrix)                 ...  NO
Zero-Field splitting spin-orbit         ...  NO
Zero-field splitting spin-spin          ...  NO
Hyperfine couplings                     ...  NO (   0 nuclei)
Quadrupole couplings                    ...  NO (   0 nuclei)
Contact density                         ...  NO (   0 nuclei)

NMR properties:
Chemical shifts                         ...  NO (   0 nuclei)
Spin-rotation constants                 ...  NO (   0 nuclei)
Spin-spin couplings                     ...  NO (   0 nuclei,    0 pairs)

Choice of magnetic origin               ... GIAO
Position of magnetic origin             ...     0.000000     0.000000     0.000000

Properties with geometric perturbations:
SCF Hessian                             ...  NO
IR spectrum                             ...  NO
VCD spectrum                            ...  NO
X-ray spectroscopy properties:
SCF XES/XAS/RIXS spectra                ...  NO

SCF SOC stabilization energy            ...  NO
Diagonal Born-Oppenheimer correction    ...  NO

-------------
DIPOLE MOMENT
-------------

Method             : SCF
Type of density    : Electron Density
Multiplicity       :   1
Irrep              :   0
Energy             :  -323.5301780285830091 Eh
Basis              : AO
                                X                 Y                 Z
Electronic contribution:      4.307872275       2.225507549       2.957623906
Nuclear contribution   :     -3.780538423      -2.537317049      -3.247664129
                        -----------------------------------------
Total Dipole Moment    :      0.527333853      -0.311809500      -0.290040223
                        -----------------------------------------
Magnitude (a.u.)       :      0.677812280
Magnitude (Debye)      :      1.722861898



--------------------
Rotational spectrum 
--------------------
 
Rotational constants in cm-1:             0.165443             0.099362             0.076837 
Rotational constants in MHz :          4959.842162          2978.786878          2303.508005 

Dipole components along the rotational axes: 
x,y,z [a.u.] :     0.065127     0.559584    -0.376900 
x,y,z [Debye]:     0.165540     1.422349    -0.958005 

 

Dipole moment calculation done in   0.0 sec 

Maximum memory used throughout the entire PROP-calculation: 7.7 MB

--------------------------------
SUGGESTED CITATIONS FOR THIS RUN
--------------------------------

Below you find a list of papers that are relevant to this ORCA run
We neither can nor want to force you to cite these papers, but we appreciate if you do
You receive ORCA, which is the product of decades of hard work by many enthusiastic individuals, for free
The only thing we kindly ask in return is that you cite our papers,
We deeply appreciate it, if you show your appreciation for ORCA by not just citing the generic ORCA reference.

Please note that relegating all ORCA citations to the supporting information does *not* help us.
SI sections are not indexed - citations you put there will not count into any citation statistics
But we need these citations in order to attract the funding resources that allow us to do what we are doing

Therefore, if you are a happy ORCA user, please consider citing a few of the papers listed below in the main body of your paper

In addition to the list printed below, the program has created the file 1.bibtex that contains the list in bibtex format
You can import this file easily into all common literature databanks and citation aid programs


List of essential papers. We consider these as the minimum necessary citations

  1. Neese, F.
     Software update: the ORCA program system, version 6.0
     WIRES Comput. Molec. Sci. 2025 15(1), e70019
     doi.org/10.1002/wcms.7019

List of papers to cite with high priority. The work reported in these papers was absolutely
necessary for this run to complete.
Our perspective: the developers of density functionals and basis sets usually get cited in chemistry papers
Good! But without the algorithms to do something with them, the functionals or basis sets would not do anything.
Hence, in our opinion, the algorithm design and method developments papers are equally worthy of getting cited

  1. Neese, F.
     An improvement of the resolution of the identity approximation for the formation of the Coulomb matrix
     J. Comp. Chem. 2003 24(14), 1740-1747
     doi.org/10.1002/jcc.10318
  2. Grimme, S.
     Semiempirical GGA-type density functional constructed with a long-range dispersion correction
     J.Comput.Chem. 2006 27(15), 1787-1799
     doi.org/10.1002/jcc.20495
  3. Neese, F.
     The SHARK Integral Generation and Digestion System
     J. Comp. Chem. 2022 44(3), 381
     doi.org/10.1002/jcc.26942

List of suggested additional citations. These are papers that are important in the 'surrounding' of 
of this run, or papers that preceded the highly important papers. If you like your results we are grateful for a citation.

  1. Neese, F.
     The ORCA program system
     WIRES Comput. Molec. Sci. 2012 2(1), 73-78
     doi.org/10.1002/wcms.81
  2. Neese, F.
     Software update: the ORCA program system, version 4.0
     WIRES Comput. Molec. Sci. 2018 8(1), 1-6
     doi.org/10.1002/wcms.1327
  3. Neese, F.; Wennmohs, F.; Becker, U.; Riplinger, C.
     The ORCA quantum chemistry program package
     J. Chem. Phys. 2020 152(22), 224108
     doi.org/10.1063/5.0004608
  4. Neese, F.
     Software update: The ORCA program system—Version 5.0
     WIRES Comput. Molec. Sci. 2022 12(1), e1606
     doi.org/10.1002/wcms.1606

List of optional additional citations

  1. Neese, F.
     Approximate second-order SCF convergence for spin unrestricted wavefunctions
     Chem. Phys. Lett. 2000 325(1-3), 93-98
     doi.org/10.1016/s0009-2614(00)00662-x

Timings for individual modules:

Sum of individual times          ...       58.405 sec (=   0.973 min)
Startup calculation              ...        3.993 sec (=   0.067 min)   6.8 %
SCF iterations                   ...       33.343 sec (=   0.556 min)  57.1 %
Property calculations            ...        0.033 sec (=   0.001 min)   0.1 %
SCF Gradient evaluation          ...       21.021 sec (=   0.350 min)  36.0 %
Geometry relaxation              ...        0.015 sec (=   0.000 min)   0.0 %
                             ****ORCA TERMINATED NORMALLY****
TOTAL RUN TIME: 0 days 0 hours 0 minutes 58 seconds 740 msec
