
                                 *****************
                                 * O   R   C   A *
                                 *****************

                                            #,                                       
                                            ###                                      
                                            ####                                     
                                            #####                                    
                                            ######                                   
                                           ########,                                 
                                     ,,################,,,,,                         
                               ,,#################################,,                 
                          ,,##########################################,,             
                       ,#########################################, ''#####,          
                    ,#############################################,,   '####,        
                  ,##################################################,,,,####,       
                ,###########''''           ''''###############################       
              ,#####''   ,,,,##########,,,,          '''####'''          '####       
            ,##' ,,,,###########################,,,                        '##       
           ' ,,###''''                  '''############,,,                           
         ,,##''                                '''############,,,,        ,,,,,,###''
      ,#''                                            '''#######################'''  
     '                                                          ''''####''''         
             ,#######,   #######,   ,#######,      ##                                
            ,#'     '#,  ##    ##  ,#'     '#,    #''#        ,####,    ,#,          
            ##       ##  ##   ,#'  ##            #'  '#       #'       ,# #          
            ##       ##  #######   ##           ,######,      #####,      #          
            '#,     ,#'  ##    ##  '#,     ,#' ,#      #,     #,   #      #          
             '#######'   ##     ##  '#######'  #'      '#     '####' #    #          



                #########################################################
                #                        -***-                          #
                #          Department of theory and spectroscopy        #
                #                                                       #
                #                      Frank Neese                      #
                #                                                       #
                #     Directorship, Architecture, Infrastructure        #
                #                    SHARK, DRIVERS                     #
                #        Core code/Algorithms in most modules           #
                #                                                       #
                #        Max Planck Institute fuer Kohlenforschung      #
                #                Kaiser Wilhelm Platz 1                 #
                #                 D-45470 Muelheim/Ruhr                 #
                #                      Germany                          #
                #                                                       #
                #                  All rights reserved                  #
                #                        -***-                          #
                #########################################################


                         Program Version 6.1.0  -  RELEASE   -
                                (GIT: $679e74b$)
                          ($2025-06-10 18:02:51 +0200$)


 With contributions from (in alphabetic order):
[Max-Planck-Institut fuer Kohlenforschung]                               
  Daniel Aravena         : Magnetic Suceptibility                        
  Michael Atanasov       : Ab Initio Ligand Field Theory (pilot matlab implementation)
  Alexander A. Auer      : GIAO ZORA, VPT2 properties, NMR spectrum      
  Ute Becker             : All parallelization in ORCA, NUMFREQ, NUMCALC 
  Giovanni Bistoni       : ED, misc. LED, open-shell LED, HFLD           
  Dmytro Bykov           : pre 5.0 version of the SCF Hessian            
  Marcos Casanova-Páez   : Triplet and SCS-CIS(D). UHF-(DLPNO)-IP/EA/STEOM-CCSD. UHF-CVS-IP/STEOM-CCSD   
  Vijay G. Chilkuri      : MRCI spin determinant printing, contributions to CSF-ICE 
  Pauline Colinet        : FMM embedding                                 
  Dipayan Datta          : RHF DLPNO-CCSD density                        
  Achintya Kumar Dutta   : EOM-CC, STEOM-CC                              
  Nicolas Foglia         : Exact transition moments, OPA infrastructure, MCD improvements    
  Dmitry Ganyushin       : Spin-Orbit,Spin-Spin,Magnetic field MRCI      
  Miquel Garcia-Rates    : C-PCM and meta-GGA Hessian, CCSD/C-PCM, Gaussian charge scheme 
  Tiago L. C. Gouveia    : GS-ROHF, GS-ROCIS                             
  Yang Guo               : DLPNO-NEVPT2, F12-NEVPT2, CIM, IAO-localization        
  Andreas Hansen         : Spin unrestricted coupled pair/coupled cluster methods 
  Ingolf Harden          : AUTO-CI MPn and infrastructure                
  Benjamin Helmich-Paris : MC-RPA, TRAH-(SCF,CASSCF), AVAS, COSX integrals, SCF dyn. polar., MC-PDFT, srDFT 
  Lee Huntington         : MR-EOM, pCC                                   
  Robert Izsak           : Overlap fitted RIJCOSX, COSX-SCS-MP3, EOM     
  Riya Kayal             : Wick's Theorem for AUTO-CI, AUTO-CI UHF-CCSDT 
  Emily Kempfer          : AUTO-CI RHF CISDT and CCSDT, approximate NEVPT4
  Christian Kollmar      : KDIIS, OOCD, Brueckner-CCSD(T), CCSD density, CASPT2, CASPT2-K, improved NEVPT2 
  Axel Koslowski         : Symmetry handling                             
  Simone Kossmann        : meta-GGA functionals, TD-DFT gradient, OOMP2, (MP2 Hessian; deprecated post 5.0) 
  Lucas Lang             : DCDCAS, Hyperfine gauge corrections, ICE-SOC+SSC
  Marvin Lechner         : AUTO-CI (C++ implementation), FIC-MRCC        
  Spencer Leger          : CASSCF response                               
  Dagmar Lenk            : GEPOL surface, SMD, ORCA-2-JSON               
  Dimitrios Liakos       : Extrapolation schemes; Compound Job, Property file
  Dimitrios Manganas     : Further ROCIS development; embedding schemes. LFT, Crystal Embedding 
  Dimitrios Pantazis     : SARC Basis sets                               
  Anastasios Papadopoulos: AUTO-CI, single reference methods and gradients 
  Taras Petrenko         : pre 6.0 DFT Hessian and TD-DFT gradient,  ECA, NRVS 
  Petra Pikulova         : Analytic Raman intensities                    
  Peter Pinski           : DLPNO-MP2, DLPNO-MP2 Gradient                 
  Shashank Vittal Rao    : ES-AILFT, MagRelax                            
  Christoph Reimann      : Effective Core Potentials                     
  Marius Retegan         : Local ZFS, SOC                                
  Christoph Riplinger    : Optimizer, TS searches, QM/MM, DLPNO-CCSD(T), (RO)-DLPNO pert. Triples 
  Michael Roemelt        : Original ROCIS implementation, recursive CI coupling coefficients
  Masaaki Saitow         : Open-shell DLPNO-CCSD energy and density      
  Barbara Sandhoefer     : DKH picture change effects                    
  Yorick L. A. Schmerwitz: GMF and freeze-and-release deltaSCF, NEB S-IDPP initial path                    
  Kantharuban Sivalingam : CASSCF convergence/infrastructure, NEVPT2, NEVPT3, NEVPT4(SD), FIC-MRCI and CEPA variants
  Bernardo de Souza      : ESD, SOC TD-DFT                               
  Georgi L. Stoychev     : AutoAux, RI-MP2 NMR, DLPNO-MP2 response, X2C  
  Van Anh Tran           : RI-MP2 g-tensors                              
  Willem Van den Heuvel  : Paramagnetic NMR                              
  Zikuan Wang            : NOTCH, Electric field optimization            
  Frank Wennmohs         : Technical directorship and infrastructure     
  Hang Xu                : AUTO-CI-Response properties                   
                                                                         
[FACCTs GmbH]                                                            
  Markus Bursch, Nicolas Foglia, Miquel Garcia-Rates, Ingolf Harden, Hagen Neugebauer, Anastasios Papadopoulos, 
  Christoph Riplinger, Bernardo de Souza, Georgi L. Stoychev                                                    
                                                                 
  APM, various basis sets, CI-OPT, improved COSX, DLPNO-Multilevel,           
  DOCKER, DRACO, updates on ESD, Fragmentator, GOAT, IRC, LR-CPCM, L-BFGS, MBIS, meta-GGA TD-DFT gradient, ML-optimized integration grids, 
  MM, NACMEs, nearIR, NEB, NEB-TS, NL-DFT gradient (VV10), 2- and 3-layer-ONIOM, interface openCOSMO-RS, QMMM,   
  Crystal-QMMM, RESP, rigid body optimization, SF, symmetry and pop. for TD-DFT, various functionals, SOLVATOR                                   
                                                                         
[Other institutions]                                                     
  V. Asgeirsson          : NEB                                           
  Christoph Bannwarth    : sTDA-DFT, sTD-DFT, PBEh-3c, B97-3c, D3        
  Giovanni Bistoni       : ETS/NOCV, ADLD/ADEX, COVALED                  
  Martin Brehm           : Molecular dynamics                            
  Ronald Cardenas        : ETS/NOCV                                      
  Martina Colucci        : COVALED                                       
  Sebastian Ehlert       : rSCAN, r2SCAN, r2SCAN-3c, D4, dhf basis sets  
  Marvin Friede          : D4 for Fr, Ra, Ac-Lr                          
  Lars Goerigk           : TD-DFT with DH, B97 family of functionals     
  Stefan Grimme          : VdW corrections, initial TS optimization, DFT functionals, gCP, sTDA/sTD-DF 
  Waldemar Hujo          : DFT-NL                                        
  H. Jonsson             : NEB                                           
  Holger Kruse           : gCP                                           
  Marcel Mueller         : wB97X-3c, vDZP basis set                      
  Hagen Neugebauer       : wr2SCAN, Native XTB                           
  Gianluca Regni         : ADLD/ADEX                                     
  Tobias Risthaus        : pre 6.0 range-separated hybrid DFT and stability analysis
  Lukas Wittmann         : regularized MP2, r2SCAN double-hybrids, wr2SCAN        
                                                                         
We gratefully acknowledge several colleagues who have allowed us to      
interface, adapt or use parts of their codes:                            
  Ed Valeev, F. Pavosevic, A. Kumar             : LibInt (2-el integral package), F12 methods 
  Garnet Chan, S. Sharma, J. Yang, R. Olivares  : DMRG                   
  Ulf Ekstrom                                   : XCFun DFT Library      
  Mihaly Kallay                                 : mrcc  (arbitrary order and MRCC methods)
  Frank Weinhold                                : gennbo (NPA and NBO analysis)           
  Simon Mueller                                 : openCOSMO-RS                            
  Christopher J. Cramer and Donald G. Truhlar   : smd solvation model                     
  S Lehtola, MJT Oliveira, MAL Marques          : LibXC Library                           
  Liviu Ungur et al                             : ANISO software                          


 Your calculation uses the libint2 library for the computation of 2-el integrals
 For citations please refer to: http://libint.valeyev.net

 Your ORCA version has been built with support for libXC version: 7.0.0
 For citations please refer to: https://libxc.gitlab.io

 This ORCA versions uses:
   CBLAS   interface :  Fast vector & matrix operations
   LAPACKE interface :  Fast linear algebra routines
   SCALAPACK package :  Parallel linear algebra routines
   Shared memory     :  Shared parallel matrices
   BLAS/LAPACK       :  OpenBLAS 0.3.29  USE64BITINT DYNAMIC_ARCH NO_AFFINITY Haswell SINGLE_THREADED
        Core in use  :  Haswell
   Copyright (c) 2011-2014, The OpenBLAS Project


  ***********************************
  * Starting time: Sat Aug 16 15:53:05 2025
  * Host name:     CHEMLAB02
  * Process ID:    1907018
  * Working dir.:  /home/vivek/mm-project/vivek/xtb-goat/B97-D/l/2
  ***********************************



***************************************
The coordinates will be read from file: /home/vivek/mm-project/vivek/xtb-goat/xtb-goat/l/L_CONF/2.xyz
***************************************


Your calculation utilizes empirical dispersion correction


Warning: RI is on but no J-basis has been assigned. Assigning Def2/J (nothing to worry about!)
================================================================================

----- Orbital basis set information -----
Your calculation utilizes the basis: 6-31G**
   H-He, Li-Ne : W. J. Hehre, R. Ditchfield and J.A. Pople, J. Chem. Phys. 56, 2257 (1972).
                 Note: He and Ne are unpublished basis sets taken from the Gaussian program.
                 Note: Li and B from J. D. Dill and J. A. Pople, J. Chem. Phys. 62, 2921 (1975).
   Na - Ar     : M. M. Francl, W. J. Pietro, W. J. Hehre, J. S. Binkley, M. S. Gordon, 
                 D. J. DeFrees and J. A. Pople, J. Chem. Phys. 77, 3654 (1982).
   K - Zn      : V. A. Rassolov, J. A. Pople, M. A. Ratner, and T. L. Windus, J. Chem. Phys. 109, 1223 (1998).

----- AuxJ basis set information -----
Your calculation utilizes the auxiliary basis: def2/J
   H-Rn: F. Weigend, Phys. Chem. Chem. Phys. 8, 1057 (2006).
   Fr-Lr: K. Eichkorn, F. Weigend, O. Treutler, R. Ahlrichs; Theor. Chem. Acc. 97, 119 (1997).

================================================================================
                                        WARNINGS
                       Please study these warnings very carefully!
================================================================================


INFO   : The exchange functional is Grimme's B97(-D)
         As described in S. Grimme, J. Comput. Chem. 27, 1787 (2006).
         Note that this functional defaults to a pure GGA. 

INFO   : The correlation functional is Grimme's B97(-D)
         As described in S. Grimme, J. Comput. Chem. 27, 1787 (2006).

================================================================================
                                       INPUT FILE
================================================================================
NAME = 2.inp
|  1> ! B97-D 6-31G** 
|  2> 
|  3> * xyzfile 0 1 /home/vivek/mm-project/vivek/xtb-goat/xtb-goat/l/L_CONF/2.xyz
|  4> 
|  5>                          ****END OF INPUT****
================================================================================

                       ****************************
                       * Single Point Calculation *
                       ****************************

---------------------------------
CARTESIAN COORDINATES (ANGSTROEM)
---------------------------------
  C     -9.637146    6.580267   -2.100048
  C     -8.394936    6.785190   -1.244018
  H     -9.782802    8.492515   -2.806180
  H     -8.862134    7.506702   -3.730698
  C     -9.599680    5.172208   -2.717253
  H    -10.522195    6.692714   -1.468986
  H     -8.597121    2.678457   -3.109649
  N     -9.713594    7.550983   -3.178303
  C     -9.575354    4.016410   -1.712619
  H    -10.475986    5.082302   -3.361180
  H     -8.711671    5.112350   -3.351492
  C    -10.809471    4.014694   -0.813689
  H    -10.823225    3.116655   -0.200198
  C     -9.480278    2.695461   -2.475206
  H    -10.809707    4.874407   -0.149676
  H    -11.715896    4.033694   -1.414714
  H     -8.685120    4.113029   -1.081338
  H     -9.420254    1.858973   -1.782980
  H    -10.357441    2.558809   -3.103800
  O     -8.618653    6.571805    0.058032
  H     -7.804555    6.701512    0.571544
  O     -7.321972    7.123671   -1.670960

----------------------------
CARTESIAN COORDINATES (A.U.)
----------------------------
  NO LB      ZA    FRAG     MASS         X           Y           Z
   0 C     6.0000    0    12.011  -18.211567   12.434902   -3.968515
   1 C     6.0000    0    12.011  -15.864131   12.822150   -2.350853
   2 H     1.0000    0     1.008  -18.486816   16.048527   -5.302912
   3 H     1.0000    0     1.008  -16.747007   14.185612   -7.049997
   4 C     6.0000    0    12.011  -18.140766    9.774056   -5.134864
   5 H     1.0000    0     1.008  -19.884067   12.647397   -2.775982
   6 H     1.0000    0     1.008  -16.246204    5.061551   -5.876385
   7 N     7.0000    0    14.007  -18.356033   14.269289   -6.006122
   8 C     6.0000    0    12.011  -18.094796    7.589916   -3.236381
   9 H     1.0000    0     1.008  -19.796744    9.604160   -6.351709
  10 H     1.0000    0     1.008  -16.462672    9.660942   -6.333402
  11 C     6.0000    0    12.011  -20.426940    7.586673   -1.537649
  12 H     1.0000    0     1.008  -20.452932    5.889624   -0.378319
  13 C     6.0000    0    12.011  -17.915130    5.093683   -4.677461
  14 H     1.0000    0     1.008  -20.427385    9.211294   -0.282847
  15 H     1.0000    0     1.008  -22.139834    7.622578   -2.673422
  16 H     1.0000    0     1.008  -16.412499    7.772498   -2.043433
  17 H     1.0000    0     1.008  -17.801700    3.512950   -3.369343
  18 H     1.0000    0     1.008  -19.572728    4.835449   -5.865333
  19 O     8.0000    0    15.999  -16.286894   12.418912    0.109664
  20 H     1.0000    0     1.008  -14.748471   12.664023    1.080061
  21 O     8.0000    0    15.999  -13.836522   13.461787   -3.157658

--------------------------------
INTERNAL COORDINATES (ANGSTROEM)
--------------------------------
 C      0   0   0     0.000000000000     0.00000000     0.00000000
 C      1   0   0     1.522453919214     0.00000000     0.00000000
 H      1   2   0     2.043656370255    97.26650597     0.00000000
 H      3   1   2     1.635294141440    65.86705013    89.45388834
 C      1   2   3     1.537847710258   109.20966055   144.37349499
 H      1   2   3     1.092791981867   108.80014368   264.72772261
 H      5   1   2     2.716227526080   155.17322591     5.02722871
 N      3   1   2     1.014764877100    41.72681047   124.06597867
 C      5   1   2     1.531583922884   115.34580159    60.43773075
 H      5   1   2     1.091162647438   107.02082011   182.83294680
 H      5   1   2     1.092887076398   107.62924953   298.46455596
 C      9   5   1     1.526801945126   111.97538131    60.30639235
 H     12   9   5     1.087674475209   110.07421634   172.94162203
 C      7   5   1     1.087554504953    66.52429313   104.02217026
 H     12   9   5     1.086286541145   111.04986210   292.46395353
 H     12   9   5     1.087748965103   110.37871664    53.32930285
 H      9   5   1     1.095611997915   108.92349503   300.27738749
 H     14   7   5     1.087424471872   108.33091950   209.21480967
 H     14   7   5     1.087759317091   108.40661612    91.77552585
 O      2   1   3     1.338250943237   112.90463378   117.66319329
 H     20   2   1     0.971223436956   110.67115518   179.37108159
 O      2   1   3     1.203371068225   124.46336003   298.78368042

---------------------------
INTERNAL COORDINATES (A.U.)
---------------------------
 C      0   0   0     0.000000000000     0.00000000     0.00000000
 C      1   0   0     2.877020958830     0.00000000     0.00000000
 H      1   2   0     3.861950851626    97.26650597     0.00000000
 H      3   1   2     3.090258075727    65.86705013    89.45388834
 C      1   2   3     2.906111008066   109.20966055   144.37349499
 H      1   2   3     2.065077567073   108.80014368   264.72772261
 H      5   1   2     5.132926141709   155.17322591     5.02722871
 N      3   1   2     1.917627708042    41.72681047   124.06597867
 C      5   1   2     2.894274165368   115.34580159    60.43773075
 H      5   1   2     2.061998571222   107.02082011   182.83294680
 H      5   1   2     2.065257269695   107.62924953   298.46455596
 C      9   5   1     2.885237537026   111.97538131    60.30639235
 H     12   9   5     2.055406881002   110.07421634   172.94162203
 C      7   5   1     2.055180170073    66.52429313   104.02217026
 H     12   9   5     2.052784065730   111.04986210   292.46395353
 H     12   9   5     2.055547646501   110.37871664    53.32930285
 H      9   5   1     2.070406625098   108.92349503   300.27738749
 H     14   7   5     2.054934443162   108.33091950   209.21480967
 H     14   7   5     2.055567208924   108.40661612    91.77552585
 O      2   1   3     2.528927781180   112.90463378   117.66319329
 H     20   2   1     1.835346310693   110.67115518   179.37108159
 O      2   1   3     2.274041756430   124.46336003   298.78368042

---------------------
BASIS SET INFORMATION
---------------------
There are 4 groups of distinct atoms

 Group   1 Type C   : 10s4p1d contracted to 3s2p1d pattern {631/31/1}
 Group   2 Type H   : 4s1p contracted to 2s1p pattern {31/1}
 Group   3 Type N   : 10s4p1d contracted to 3s2p1d pattern {631/31/1}
 Group   4 Type O   : 10s4p1d contracted to 3s2p1d pattern {631/31/1}

Atom   0C    basis set group =>   1
Atom   1C    basis set group =>   1
Atom   2H    basis set group =>   2
Atom   3H    basis set group =>   2
Atom   4C    basis set group =>   1
Atom   5H    basis set group =>   2
Atom   6H    basis set group =>   2
Atom   7N    basis set group =>   3
Atom   8C    basis set group =>   1
Atom   9H    basis set group =>   2
Atom  10H    basis set group =>   2
Atom  11C    basis set group =>   1
Atom  12H    basis set group =>   2
Atom  13C    basis set group =>   1
Atom  14H    basis set group =>   2
Atom  15H    basis set group =>   2
Atom  16H    basis set group =>   2
Atom  17H    basis set group =>   2
Atom  18H    basis set group =>   2
Atom  19O    basis set group =>   4
Atom  20H    basis set group =>   2
Atom  21O    basis set group =>   4
---------------------------------
AUXILIARY/J BASIS SET INFORMATION
---------------------------------
There are 4 groups of distinct atoms

 Group   1 Type C   : 12s5p4d2f1g contracted to 6s4p3d1f1g pattern {711111/2111/211/2/1}
 Group   2 Type H   : 5s2p1d contracted to 3s1p1d pattern {311/2/1}
 Group   3 Type N   : 12s5p4d2f1g contracted to 6s4p3d1f1g pattern {711111/2111/211/2/1}
 Group   4 Type O   : 12s5p4d2f1g contracted to 6s4p3d1f1g pattern {711111/2111/211/2/1}

Atom   0C    basis set group =>   1
Atom   1C    basis set group =>   1
Atom   2H    basis set group =>   2
Atom   3H    basis set group =>   2
Atom   4C    basis set group =>   1
Atom   5H    basis set group =>   2
Atom   6H    basis set group =>   2
Atom   7N    basis set group =>   3
Atom   8C    basis set group =>   1
Atom   9H    basis set group =>   2
Atom  10H    basis set group =>   2
Atom  11C    basis set group =>   1
Atom  12H    basis set group =>   2
Atom  13C    basis set group =>   1
Atom  14H    basis set group =>   2
Atom  15H    basis set group =>   2
Atom  16H    basis set group =>   2
Atom  17H    basis set group =>   2
Atom  18H    basis set group =>   2
Atom  19O    basis set group =>   4
Atom  20H    basis set group =>   2
Atom  21O    basis set group =>   4
------------------------------------------------------------------------------
                             ORCA STARTUP CALCULATIONS
                           -- RI-GTO INTEGRALS CHOSEN --
------------------------------------------------------------------------------
------------------------------------------------------------------------------
                   ___                                                        
                  /   \      - P O W E R E D   B Y -                         
                 /     \                                                     
                 |  |  |   _    _      __       _____    __    __             
                 |  |  |  | |  | |    /  \     |  _  \  |  |  /  |          
                  \  \/   | |  | |   /    \    | | | |  |  | /  /          
                 / \  \   | |__| |  /  /\  \   | |_| |  |  |/  /          
                |  |  |   |  __  | /  /__\  \  |    /   |      \           
                |  |  |   | |  | | |   __   |  |    \   |  |\   \          
                \     /   | |  | | |  |  |  |  | |\  \  |  | \   \       
                 \___/    |_|  |_| |__|  |__|  |_| \__\ |__|  \__/        
                                                                              
                      - O R C A' S   B I G   F R I E N D -                    
                                      &                                       
                       - I N T E G R A L  F E E D E R -                       
                                                                              
 v1 FN, 2020, v2 2021, v3 2022-2024                                           
------------------------------------------------------------------------------


----------------------
SHARK INTEGRAL PACKAGE
----------------------

Number of atoms                             ...     22
Number of basis functions                   ...    191
Number of shells                            ...     93
Maximum angular momentum                    ...      2
Integral batch strategy                     ... SHARK/LIBINT Hybrid
RI-J (if used) integral strategy            ... SPLIT-RIJ (Revised 2003 algorithm where possible)
Printlevel                                  ...      1
Contraction scheme used                     ... SEGMENTED contraction
Prescreening option                         ... SCHWARTZ
   Thresh                                   ... 1.000e-10
   Tcut                                     ... 1.000e-11
   Tpresel                                  ... 1.000e-11 
Coulomb Range Separation                    ... NOT USED
Exchange Range Separation                   ... NOT USED
Multipole approximations                    ... NOT USED
Finite Nucleus Model                        ... NOT USED
CABS basis                                  ... NOT available
Auxiliary Coulomb fitting basis             ... AVAILABLE
   # of basis functions in Aux-J            ...    584
   # of shells in Aux-J                     ...    200
   Maximum angular momentum in Aux-J        ...      4
Auxiliary J/K fitting basis                 ... NOT available
Auxiliary Correlation fitting basis         ... NOT available
Auxiliary 'external' fitting basis          ... NOT available

Checking pre-screening integrals            ... done (  0.0 sec) Dimension = 93
   => SHARK Basis and OBASIS are compatible. Storing Pre-screening
Shell pair information
Shell pair cut-off parameter TPreSel        ...   1.0e-11
Total number of shell pairs                 ...      4371
Shell pairs after pre-screening             ...      3903
Total number of primitive shell pairs       ...     20328
Primitive shell pairs kept                  ...     12036
          la=0 lb=0:   1290 shell pairs
          la=1 lb=0:   1455 shell pairs
          la=1 lb=1:    438 shell pairs
          la=2 lb=0:    429 shell pairs
          la=2 lb=1:    249 shell pairs
          la=2 lb=2:     42 shell pairs

Checking whether 4 symmetric matrices of dimension 191 fit in memory
:Max Core in MB      =   4096.00
 MB in use           =      8.59
 MB left             =   4087.41
 MB needed           =      0.56
 Data fit in memory  = YES
Calculating RI/J V-Matrix + Cholesky decomp.... done (  0.0 sec)
Calculating Nuclear repulsion               ... done (  0.0 sec) ENN=    490.398721631573 Eh

Diagonalization of the overlap matrix:
Smallest eigenvalue                        ... 3.001e-03
Time for diagonalization                   ...    0.002 sec
Threshold for overlap eigenvalues          ... 1.000e-07
Number of eigenvalues below threshold      ... 0
Time for construction of square roots      ...    0.001 sec
Total time needed                          ...    0.003 sec

-------------------
DFT GRID GENERATION
-------------------

General Integration Accuracy     IntAcc      ... 4.388
Radial Grid Type                 RadialGrid  ... OptM3 with GC (2021)
Angular Grid (max. ang.)         AngularGrid ... 4 (Lebedev-302)
Angular grid pruning method      GridPruning ... 4 (adaptive)
Weight generation scheme         WeightScheme... mBecke (2022)
Basis function cutoff            BFCut       ... 1.0000e-10
Integration weight cutoff        WCut        ... 1.0000e-14
Partially contracted basis set               ... off
Rotationally invariant grid construction     ... off
Angular grids for H and He will be reduced by one unit

Total number of grid points                  ...    95566
Total number of batches                      ...     1505
Average number of points per batch           ...       63
Average number of grid points per atom       ...     4344
Grids setup in   0.4 sec
Initializing property integral containers    ... done (  0.0 sec)

SHARK setup successfully completed in   0.4 seconds

Maximum memory used throughout the entire STARTUP-calculation: 40.6 MB
-------------------------------------------------------------------------------
                                 ORCA GUESS
                   Start orbitals & Density for SCF / CASSCF
-------------------------------------------------------------------------------

------------
SCF SETTINGS
------------
Hamiltonian:
 Density Functional     Method          .... DFT(GTOs)
 Exchange Functional    Exchange        .... B97(D)
 Correlation Functional Correlation     .... B97(D)
 Gradients option       PostSCFGGA      .... off
 RI-approximation to the Coulomb term is turned on
   Number of AuxJ basis functions       .... 584


General Settings:
 Integral files         IntName         .... 2
 Hartree-Fock type      HFTyp           .... RHF
 Total Charge           Charge          ....    0
 Multiplicity           Mult            ....    1
 Number of Electrons    NEL             ....   72
 Basis Dimension        Dim             ....  191
 Nuclear Repulsion      ENuc            ....    490.3987216316 Eh

Convergence Acceleration:
 AO-DIIS                CNVDIIS         .... on
   Start iteration      DIISMaxIt       ....    12
   Startup error        DIISStart       ....  0.200000
   # of expansion vecs  DIISMaxEq       ....     5
   Bias factor          DIISBfac        ....   1.050
   Max. coefficient     DIISMaxC        ....  10.000
 MO-DIIS                CNVKDIIS        .... off
 Trust-Rad. Augm. Hess. CNVTRAH         .... auto
   Auto Start mean grad. ratio tolernc. ....  1.125000
   Auto Start start iteration           ....    50
   Auto Start num. interpolation iter.  ....    10
   Max. Number of Micro iterations      ....    24
   Max. Number of Macro iterations      .... Maxiter - #DIIS iter
   Number of Davidson start vectors     ....     2
   Converg. threshold    (grad. norm)   ....   5.000e-05
   Grad. Scal. Fac. for Micro threshold ....   0.100
   Minimum threshold for Micro iter.    ....   1.000e-02
   NR start threshold (gradient norm)   ....   1.000e-04
   Initial trust radius                 ....   0.400
   Minimum AH scaling param. (alpha)    ....   1.000
   Maximum AH scaling param. (alpha)    .... 1000.000
   Quad. conv. algorithm                .... NR
   White noise on init. David. guess    .... on
   Maximum white noise                  ....   0.010
   Pseudo random numbers                .... off
   Inactive MOs                         .... canonical
   Orbital update algorithm             .... Taylor
   Preconditioner                       .... Diag
   Full preconditioner red. dimension   ....   250
 SOSCF                 CNVSOSCF           .... on
   Start iteration     SOSCFMaxIt         ....   150
   Startup grad/error  SOSCFStart         ....  0.003300
   Hessian update      SOSCFHessUp        .... L-BFGS
   Autom. constraints  SOSCFAutoConstrain .... off
 Level Shifting         CNVShift        .... on
   Level shift para.    LevelShift      ....    0.2500
   Turn off err/grad.   ShiftErr        ....    0.0010
 Zerner damping         CNVZerner       .... off
 Static damping         CNVDamp         .... on
   Fraction old density DampFac         ....    0.7000
   Max. Damping (<1)    DampMax         ....    0.9800
   Min. Damping (>=0)   DampMin         ....    0.0000
   Turn off err/grad.   DampErr         ....    0.1000

SCF Procedure:
 Maximum # iterations   MaxIter         ....   125
 SCF integral mode      SCFMode         .... Direct
   Integral package                     .... SHARK and LIBINT hybrid scheme
 Reset frequency        DirectResetFreq ....    20
 Integral Threshold     Thresh          ....  1.000e-10 Eh
 Primitive CutOff       TCut            ....  1.000e-11 Eh

Convergence Tolerance:
 Convergence Check Mode ConvCheckMode   .... Total+1el-Energy
 Convergence forced     ConvForced      .... 0
 Energy Change          TolE            ....  1.000e-06 Eh
 1-El. energy change                    ....  1.000e-03 Eh
 Orbital Gradient       TolG            ....  5.000e-05
 Orbital Rotation angle TolX            ....  5.000e-05
 DIIS Error             TolErr          ....  1.000e-06

------------------------------
INITIAL GUESS: MODEL POTENTIAL
------------------------------
Loading Hartree-Fock densities                     ... done
Calculating cut-offs                               ... done
Initializing the effective Hamiltonian             ... done
Setting up the integral package (SHARK)            ... done
Starting the Coulomb interaction                   ... done (   0.1 sec)
Making the grid                                    ... done (   0.1 sec)
Mapping shells                                     ... done
Starting the XC term evaluation                    ... done (   0.1 sec)
  promolecular density results
     # of electrons  =     71.992307383
     EX              =    -56.843302685
     EC              =     -3.117953693
     EX+EC           =    -59.961256379
Transforming the Hamiltonian                       ... done (   0.0 sec)
Diagonalizing the Hamiltonian                      ... done (   0.0 sec)
Back transforming the eigenvectors                 ... done (   0.0 sec)
Now organizing SCF variables                       ... done
                      ------------------
                      INITIAL GUESS DONE (   0.3 sec)
                      ------------------
             **** ENERGY FILE WAS UPDATED (2.en.tmp) ****
Finished Guess after   0.3 sec
Maximum memory used throughout the entire GUESS-calculation: 13.7 MB

-------------------------------------------------------------------------------------------
                                      ORCA LEAN-SCF
                              memory conserving SCF solver
-------------------------------------------------------------------------------------------

----------------------------------------D-I-I-S--------------------------------------------
Iteration    Energy (Eh)           Delta-E    RMSDP     MaxDP     DIISErr   Damp  Time(sec)
-------------------------------------------------------------------------------------------
               ***  Starting incremental Fock matrix formation  ***
    1    -441.0188377382199860     0.00e+00  3.53e-03  1.07e-01  2.59e-01  0.700   0.5
    2    -441.1970943575688580    -1.78e-01  2.33e-03  5.69e-02  9.70e-02  0.700   0.5
                               ***Turning on AO-DIIS***
    3    -441.2531923763320947    -5.61e-02  9.04e-04  1.59e-02  2.74e-02  0.700   0.5
    4    -441.2889543468005513    -3.58e-02  1.20e-03  1.86e-02  1.22e-02  0.000   0.5
    5    -441.3715244188633733    -8.26e-02  4.06e-04  8.22e-03  1.00e-02  0.000   0.5
                              *** Initializing SOSCF ***
---------------------------------------S-O-S-C-F--------------------------------------
Iteration    Energy (Eh)           Delta-E    RMSDP     MaxDP     MaxGrad    Time(sec)
--------------------------------------------------------------------------------------
    6    -441.3724204922165200    -8.96e-04  1.46e-04  2.80e-03  3.09e-03     0.5
               *** Restarting incremental Fock matrix formation ***
    7    -441.3724858292441695    -6.53e-05  1.26e-04  4.35e-03  8.65e-04     0.5
    8    -441.3724553167194244     3.05e-05  6.86e-05  3.34e-03  2.48e-03     0.5
    9    -441.3724953745590938    -4.01e-05  4.40e-05  7.88e-04  2.38e-04     0.4
   10    -441.3724930935776456     2.28e-06  2.54e-05  4.87e-04  2.36e-04     0.4
   11    -441.3724970813985919    -3.99e-06  6.69e-06  2.20e-04  2.84e-05     0.4
   12    -441.3724969928701967     8.85e-08  3.98e-06  1.44e-04  4.85e-05     0.4
                 **** Energy Check signals convergence ****

               *****************************************************
               *                     SUCCESS                       *
               *           SCF CONVERGED AFTER  12 CYCLES          *
               *****************************************************

             **** ENERGY FILE WAS UPDATED (2.en.tmp) ****

----------------
TOTAL SCF ENERGY
----------------

Total Energy       :       -441.37249713065034 Eh          -12010.35624 eV

Components:
Nuclear Repulsion  :        490.39872163157349 Eh           13344.42763 eV
Electronic Energy  :       -931.77121876222384 Eh          -25354.78387 eV
One Electron Energy:      -1572.76201348641666 Eh          -42797.03015 eV
Two Electron Energy:        640.99079472419282 Eh           17442.24627 eV

Virial components:
Potential Energy   :       -880.48034270001619 Eh          -23959.08818 eV
Kinetic Energy     :        439.10784556936585 Eh           11948.73194 eV
Virial Ratio       :          2.00515739261809

DFT components:
N(Alpha)           :       35.999888755606 electrons
N(Beta)            :       35.999888755606 electrons
N(Total)           :       71.999777511212 electrons
E(X)               :      -58.275013626675 Eh       
E(C)               :       -3.115080390922 Eh       
E(XC)              :      -61.390094017597 Eh       

---------------
SCF CONVERGENCE
---------------

  Last Energy change         ...   -8.8528e-08  Tolerance :   1.0000e-06
  Last MAX-Density change    ...    1.4402e-04  Tolerance :   1.0000e-05
  Last RMS-Density change    ...    3.9758e-06  Tolerance :   1.0000e-06
  Last DIIS Error            ...    3.0942e-03  Tolerance :   1.0000e-06
  Last Orbital Gradient      ...    4.8521e-05  Tolerance :   5.0000e-05
  Last Orbital Rotation      ...    4.2399e-05  Tolerance :   5.0000e-05


----------------
ORBITAL ENERGIES
----------------

  NO   OCC          E(Eh)            E(eV) 
   0   2.0000     -18.815292      -511.9901 
   1   2.0000     -18.752647      -510.2855 
   2   2.0000     -13.986588      -380.5944 
   3   2.0000     -10.026255      -272.8283 
   4   2.0000      -9.943886      -270.5869 
   5   2.0000      -9.908852      -269.6336 
   6   2.0000      -9.903786      -269.4957 
   7   2.0000      -9.890985      -269.1474 
   8   2.0000      -9.889472      -269.1062 
   9   2.0000      -1.020690       -27.7744 
  10   2.0000      -0.931158       -25.3381 
  11   2.0000      -0.814466       -22.1628 
  12   2.0000      -0.734319       -19.9818 
  13   2.0000      -0.661726       -18.0065 
  14   2.0000      -0.615795       -16.7566 
  15   2.0000      -0.603057       -16.4100 
  16   2.0000      -0.537525       -14.6268 
  17   2.0000      -0.498639       -13.5687 
  18   2.0000      -0.462736       -12.5917 
  19   2.0000      -0.428857       -11.6698 
  20   2.0000      -0.420948       -11.4546 
  21   2.0000      -0.408384       -11.1127 
  22   2.0000      -0.399547       -10.8722 
  23   2.0000      -0.380888       -10.3645 
  24   2.0000      -0.369529       -10.0554 
  25   2.0000      -0.354692        -9.6516 
  26   2.0000      -0.341156        -9.2833 
  27   2.0000      -0.334875        -9.1124 
  28   2.0000      -0.319250        -8.6872 
  29   2.0000      -0.311086        -8.4651 
  30   2.0000      -0.284456        -7.7404 
  31   2.0000      -0.280479        -7.6322 
  32   2.0000      -0.276722        -7.5300 
  33   2.0000      -0.270575        -7.3627 
  34   2.0000      -0.226231        -6.1561 
  35   2.0000      -0.193530        -5.2662 
  36   0.0000      -0.017528        -0.4770 
  37   0.0000       0.049886         1.3575 
  38   0.0000       0.074094         2.0162 
  39   0.0000       0.080313         2.1854 
  40   0.0000       0.100316         2.7297 
  41   0.0000       0.112808         3.0697 
  42   0.0000       0.125072         3.4034 
  43   0.0000       0.133236         3.6255 
  44   0.0000       0.150493         4.0951 
  45   0.0000       0.153059         4.1650 
  46   0.0000       0.156666         4.2631 
*Only the first 10 virtual orbitals were printed.

                    ********************************
                    * MULLIKEN POPULATION ANALYSIS *
                    ********************************

-----------------------
MULLIKEN ATOMIC CHARGES
-----------------------
   0 C :   -0.046497
   1 C :    0.495907
   2 H :    0.238924
   3 H :    0.247371
   4 C :   -0.168008
   5 H :    0.123111
   6 H :    0.104753
   7 N :   -0.557893
   8 C :   -0.080849
   9 H :    0.116289
  10 H :    0.102696
  11 C :   -0.326038
  12 H :    0.102446
  13 C :   -0.318789
  14 H :    0.118391
  15 H :    0.104008
  16 H :    0.097459
  17 H :    0.102854
  18 H :    0.105587
  19 O :   -0.454037
  20 H :    0.315054
  21 O :   -0.422740
Sum of atomic charges:   -0.0000000

--------------------------------
MULLIKEN REDUCED ORBITAL CHARGES
--------------------------------
  0 C s       :     3.196172  s :     3.196172
      pz      :     0.915190  p :     2.792913
      px      :     0.957522
      py      :     0.920202
      dz2     :     0.007506  d :     0.057411
      dxz     :     0.017676
      dyz     :     0.012942
      dx2y2   :     0.012378
      dxy     :     0.006909

  1 C s       :     2.994262  s :     2.994262
      pz      :     0.733065  p :     2.385318
      px      :     0.861914
      py      :     0.790340
      dz2     :     0.035636  d :     0.124513
      dxz     :     0.036895
      dyz     :     0.018682
      dx2y2   :     0.017211
      dxy     :     0.016089

  2 H s       :     0.737171  s :     0.737171
      pz      :     0.006047  p :     0.023906
      px      :     0.007173
      py      :     0.010686

  3 H s       :     0.728722  s :     0.728722
      pz      :     0.008195  p :     0.023907
      px      :     0.011085
      py      :     0.004627

  4 C s       :     3.233689  s :     3.233689
      pz      :     0.972464  p :     2.898193
      px      :     1.045449
      py      :     0.880280
      dz2     :     0.003040  d :     0.036126
      dxz     :     0.011846
      dyz     :     0.007782
      dx2y2   :     0.010094
      dxy     :     0.003364

  5 H s       :     0.865869  s :     0.865869
      pz      :     0.003667  p :     0.011020
      px      :     0.005228
      py      :     0.002126

  6 H s       :     0.883634  s :     0.883634
      pz      :     0.003960  p :     0.011613
      px      :     0.005110
      py      :     0.002543

  7 N s       :     3.596550  s :     3.596550
      pz      :     1.297027  p :     3.932702
      px      :     1.522636
      py      :     1.113038
      dz2     :     0.004317  d :     0.028641
      dxz     :     0.006036
      dyz     :     0.007286
      dx2y2   :     0.009662
      dxy     :     0.001339

  8 C s       :     3.207253  s :     3.207253
      pz      :     0.939953  p :     2.829867
      px      :     0.971952
      py      :     0.917962
      dz2     :     0.004808  d :     0.043729
      dxz     :     0.012165
      dyz     :     0.010791
      dx2y2   :     0.010949
      dxy     :     0.005016

  9 H s       :     0.872104  s :     0.872104
      pz      :     0.004061  p :     0.011607
      px      :     0.005126
      py      :     0.002420

 10 H s       :     0.885651  s :     0.885651
      pz      :     0.003927  p :     0.011652
      px      :     0.005192
      py      :     0.002533

 11 C s       :     3.248487  s :     3.248487
      pz      :     1.014463  p :     3.047361
      px      :     0.981283
      py      :     1.051614
      dz2     :     0.001635  d :     0.030191
      dxz     :     0.008017
      dyz     :     0.010003
      dx2y2   :     0.008999
      dxy     :     0.001537

 12 H s       :     0.885919  s :     0.885919
      pz      :     0.003842  p :     0.011634
      px      :     0.002551
      py      :     0.005241

 13 C s       :     3.248784  s :     3.248784
      pz      :     1.019267  p :     3.039580
      px      :     1.041363
      py      :     0.978950
      dz2     :     0.001365  d :     0.030425
      dxz     :     0.009764
      dyz     :     0.008512
      dx2y2   :     0.008642
      dxy     :     0.002142

 14 H s       :     0.869813  s :     0.869813
      pz      :     0.004103  p :     0.011796
      px      :     0.002578
      py      :     0.005116

 15 H s       :     0.884392  s :     0.884392
      pz      :     0.003632  p :     0.011600
      px      :     0.005276
      py      :     0.002691

 16 H s       :     0.891034  s :     0.891034
      pz      :     0.003879  p :     0.011507
      px      :     0.005011
      py      :     0.002617

 17 H s       :     0.885563  s :     0.885563
      pz      :     0.004042  p :     0.011584
      px      :     0.002686
      py      :     0.004856

 18 H s       :     0.882799  s :     0.882799
      pz      :     0.003928  p :     0.011614
      px      :     0.005050
      py      :     0.002636

 19 O s       :     3.826426  s :     3.826426
      pz      :     1.293935  p :     4.604901
      px      :     1.553543
      py      :     1.757422
      dz2     :     0.005191  d :     0.022711
      dxz     :     0.007568
      dyz     :     0.003961
      dx2y2   :     0.004050
      dxy     :     0.001941

 20 H s       :     0.647123  s :     0.647123
      pz      :     0.010879  p :     0.037823
      px      :     0.017575
      py      :     0.009369

 21 O s       :     3.857795  s :     3.857795
      pz      :     1.711179  p :     4.536892
      px      :     1.409905
      py      :     1.415808
      dz2     :     0.003572  d :     0.028052
      dxz     :     0.007039
      dyz     :     0.001997
      dx2y2   :     0.007106
      dxy     :     0.008337



                     *******************************
                     * LOEWDIN POPULATION ANALYSIS *
                     *******************************

----------------------
LOEWDIN ATOMIC CHARGES
----------------------
   0 C :   -0.050133
   1 C :    0.102310
   2 H :    0.124685
   3 H :    0.127652
   4 C :   -0.110614
   5 H :    0.079242
   6 H :    0.068118
   7 N :   -0.243009
   8 C :   -0.073647
   9 H :    0.076369
  10 H :    0.070086
  11 C :   -0.200029
  12 H :    0.069222
  13 C :   -0.194766
  14 H :    0.071043
  15 H :    0.067279
  16 H :    0.064667
  17 H :    0.068079
  18 H :    0.067769
  19 O :   -0.139158
  20 H :    0.179971
  21 O :   -0.225135

-------------------------------
LOEWDIN REDUCED ORBITAL CHARGES
-------------------------------
  0 C s       :     2.880615  s :     2.880615
      pz      :     1.001788  p :     3.039455
      px      :     1.037239
      py      :     1.000429
      dz2     :     0.015210  d :     0.130063
      dxz     :     0.040966
      dyz     :     0.030686
      dx2y2   :     0.030215
      dxy     :     0.012986

  1 C s       :     2.859675  s :     2.859675
      pz      :     0.906057  p :     2.740799
      px      :     1.032968
      py      :     0.801774
      dz2     :     0.088467  d :     0.297217
      dxz     :     0.091516
      dyz     :     0.041405
      dx2y2   :     0.040744
      dxy     :     0.035085

  2 H s       :     0.796569  s :     0.796569
      pz      :     0.019177  p :     0.078746
      px      :     0.020002
      py      :     0.039567

  3 H s       :     0.792801  s :     0.792801
      pz      :     0.026828  p :     0.079547
      px      :     0.041138
      py      :     0.011582

  4 C s       :     2.906472  s :     2.906472
      pz      :     1.045611  p :     3.122909
      px      :     1.085775
      py      :     0.991522
      dz2     :     0.006413  d :     0.081233
      dxz     :     0.023566
      dyz     :     0.020751
      dx2y2   :     0.024098
      dxy     :     0.006406

  5 H s       :     0.880578  s :     0.880578
      pz      :     0.012414  p :     0.040179
      px      :     0.020713
      py      :     0.007052

  6 H s       :     0.892314  s :     0.892314
      pz      :     0.013465  p :     0.039568
      px      :     0.018931
      py      :     0.007172

  7 N s       :     3.199223  s :     3.199223
      pz      :     1.321974  p :     3.985741
      px      :     1.506948
      py      :     1.156819
      dz2     :     0.009247  d :     0.058044
      dxz     :     0.011339
      dyz     :     0.017192
      dx2y2   :     0.017844
      dxy     :     0.002422

  8 C s       :     2.878905  s :     2.878905
      pz      :     1.031919  p :     3.094464
      px      :     1.046803
      py      :     1.015743
      dz2     :     0.009437  d :     0.100277
      dxz     :     0.027576
      dyz     :     0.027266
      dx2y2   :     0.026369
      dxy     :     0.009629

  9 H s       :     0.883514  s :     0.883514
      pz      :     0.014199  p :     0.040117
      px      :     0.019093
      py      :     0.006825

 10 H s       :     0.890246  s :     0.890246
      pz      :     0.013588  p :     0.039669
      px      :     0.019090
      py      :     0.006990

 11 C s       :     2.917147  s :     2.917147
      pz      :     1.072070  p :     3.218928
      px      :     1.055304
      py      :     1.091554
      dz2     :     0.003055  d :     0.063954
      dxz     :     0.018653
      dyz     :     0.020021
      dx2y2   :     0.019216
      dxy     :     0.003009

 12 H s       :     0.891211  s :     0.891211
      pz      :     0.013000  p :     0.039568
      px      :     0.007186
      py      :     0.019381

 13 C s       :     2.918617  s :     2.918617
      pz      :     1.076585  p :     3.211802
      px      :     1.089470
      py      :     1.045747
      dz2     :     0.002692  d :     0.064347
      dxz     :     0.019517
      dyz     :     0.019132
      dx2y2   :     0.018890
      dxy     :     0.004116

 14 H s       :     0.888269  s :     0.888269
      pz      :     0.014366  p :     0.040689
      px      :     0.007299
      py      :     0.019024

 15 H s       :     0.893017  s :     0.893017
      pz      :     0.012476  p :     0.039703
      px      :     0.019943
      py      :     0.007285

 16 H s       :     0.896326  s :     0.896326
      pz      :     0.013086  p :     0.039007
      px      :     0.018559
      py      :     0.007361

 17 H s       :     0.892363  s :     0.892363
      pz      :     0.014254  p :     0.039558
      px      :     0.007218
      py      :     0.018086

 18 H s       :     0.892567  s :     0.892567
      pz      :     0.013319  p :     0.039664
      px      :     0.018838
      py      :     0.007506

 19 O s       :     3.472679  s :     3.472679
      pz      :     1.336507  p :     4.615312
      px      :     1.555112
      py      :     1.723693
      dz2     :     0.017241  d :     0.051167
      dxz     :     0.018055
      dyz     :     0.008120
      dx2y2   :     0.005976
      dxy     :     0.001774

 20 H s       :     0.704454  s :     0.704454
      pz      :     0.031943  p :     0.115575
      px      :     0.056950
      py      :     0.026682

 21 O s       :     3.554294  s :     3.554294
      pz      :     1.703736  p :     4.612858
      px      :     1.497332
      py      :     1.411790
      dz2     :     0.008136  d :     0.057983
      dxz     :     0.015805
      dyz     :     0.003530
      dx2y2   :     0.016102
      dxy     :     0.014410



                      *****************************
                      * MAYER POPULATION ANALYSIS *
                      *****************************

  NA   - Mulliken gross atomic population
  ZA   - Total nuclear charge
  QA   - Mulliken gross atomic charge
  VA   - Mayer's total valence
  BVA  - Mayer's bonded valence
  FA   - Mayer's free valence

  ATOM       NA         ZA         QA         VA         BVA        FA
  0 C      6.0465     6.0000    -0.0465     3.8644     3.8644     0.0000
  1 C      5.5041     6.0000     0.4959     3.9372     3.9372     0.0000
  2 H      0.7611     1.0000     0.2389     0.9206     0.9206     0.0000
  3 H      0.7526     1.0000     0.2474     0.9305     0.9305    -0.0000
  4 C      6.1680     6.0000    -0.1680     3.8662     3.8662     0.0000
  5 H      0.8769     1.0000     0.1231     0.9533     0.9533     0.0000
  6 H      0.8952     1.0000     0.1048     0.9568     0.9568    -0.0000
  7 N      7.5579     7.0000    -0.5579     2.9021     2.9021    -0.0000
  8 C      6.0808     6.0000    -0.0808     3.9268     3.9268    -0.0000
  9 H      0.8837     1.0000     0.1163     0.9599     0.9599    -0.0000
 10 H      0.8973     1.0000     0.1027     0.9597     0.9597    -0.0000
 11 C      6.3260     6.0000    -0.3260     3.8796     3.8796     0.0000
 12 H      0.8976     1.0000     0.1024     0.9580     0.9580    -0.0000
 13 C      6.3188     6.0000    -0.3188     3.8870     3.8870    -0.0000
 14 H      0.8816     1.0000     0.1184     0.9612     0.9612     0.0000
 15 H      0.8960     1.0000     0.1040     0.9581     0.9581     0.0000
 16 H      0.9025     1.0000     0.0975     0.9544     0.9544    -0.0000
 17 H      0.8971     1.0000     0.1029     0.9569     0.9569    -0.0000
 18 H      0.8944     1.0000     0.1056     0.9580     0.9580     0.0000
 19 O      8.4540     8.0000    -0.4540     2.0400     2.0400    -0.0000
 20 H      0.6849     1.0000     0.3151     0.9201     0.9201     0.0000
 21 O      8.4227     8.0000    -0.4227     2.1097     2.1097    -0.0000

  Mayer bond orders larger than 0.100000
B(  0-C ,  1-C ) :   0.8927 B(  0-C ,  4-C ) :   0.9791 B(  0-C ,  5-H ) :   0.9229 
B(  0-C ,  7-N ) :   1.0437 B(  1-C , 19-O ) :   1.0720 B(  1-C , 21-O ) :   1.9211 
B(  2-H ,  7-N ) :   0.9096 B(  3-H ,  7-N ) :   0.8965 B(  4-C ,  8-C ) :   0.9960 
B(  4-C ,  9-H ) :   0.9351 B(  4-C , 10-H ) :   0.9381 B(  6-H , 13-C ) :   0.9596 
B(  8-C , 11-C ) :   1.0078 B(  8-C , 13-C ) :   1.0062 B(  8-C , 16-H ) :   0.9346 
B( 11-C , 12-H ) :   0.9592 B( 11-C , 14-H ) :   0.9520 B( 11-C , 15-H ) :   0.9580 
B( 13-C , 17-H ) :   0.9592 B( 13-C , 18-H ) :   0.9591 B( 19-O , 20-H ) :   0.8516 


-------
TIMINGS
-------

Total SCF time: 0 days 0 hours 0 min 6 sec 

Total time                  ....       6.171 sec
Sum of individual times     ....       5.761 sec  ( 93.4%)

SCF preparation             ....       0.026 sec  (  0.4%)
Fock matrix formation       ....       5.677 sec  ( 92.0%)
  Startup                   ....       0.001 sec  (  0.0% of F)
  Split-RI-J                ....       2.021 sec  ( 35.6% of F)
  XC integration            ....       4.047 sec  ( 71.3% of F)
    Basis function eval.    ....       1.431 sec  ( 35.3% of XC)
    Density eval.           ....       0.909 sec  ( 22.5% of XC)
    XC-Functional eval.     ....       0.727 sec  ( 18.0% of XC)
    XC-Potential eval.      ....       0.873 sec  ( 21.6% of XC)
Diagonalization             ....       0.000 sec  (  0.0%)
Density matrix formation    ....       0.004 sec  (  0.1%)
Total Energy calculation    ....       0.001 sec  (  0.0%)
Population analysis         ....       0.003 sec  (  0.0%)
Orbital Transformation      ....       0.006 sec  (  0.1%)
Orbital Orthonormalization  ....       0.000 sec  (  0.0%)
DIIS solution               ....       0.028 sec  (  0.4%)
SOSCF solution              ....       0.016 sec  (  0.3%)
Finished LeanSCF after   6.2 sec

Maximum memory used throughout the entire LEANSCF-calculation: 21.4 MB



-------------------------------------------------------------------------------
                          DFT DISPERSION CORRECTION                            
-------------------------------------------------------------------------------
Active option DFTDOPT                   ...         2   
Final C6-coefficient scaling factor     ...     1.250
Final VDW-radii scaling factor          ...     1.100
Damping factor alpha                    ...    20.000
-------------------------   ----------------
Dispersion correction           -0.034181188
-------------------------   ----------------


-------------------------   --------------------
FINAL SINGLE POINT ENERGY      -441.406678318873
-------------------------   --------------------


------------------------------------------------------------------------------
                              ORCA PROPERTY CALCULATIONS
------------------------------------------------------------------------------

GBWName                                 ... 2.gbw
Number of atoms                         ...     22
Number of basis functions               ...    191
Max core memory                         ...   4096 MB

Electric properties:
Dipole moment                           ... YES
Quadrupole moment                       ...  NO
Static polarizability (Dipole/Dipole)   ...  NO
Static polarizability (Dipole/Quad.)    ...  NO
Static polarizability (Quad./Quad.)     ...  NO
Static polarizability (Velocity)        ...  NO
Static hyperpolarizability              ...  NO

Atomic electric properties:
Dipole moment                           ...  NO
Quadrupole moment                       ...  NO
Static polarizability                   ...  NO

Choice of electric origin               ... Center of mass
Position of electric origin             ...   -17.420889    10.656196    -3.290201

General magnetic properties:
Magnetizability                         ...  NO

EPR properties:
g-Tensor (aka g-matrix)                 ...  NO
Zero-Field splitting spin-orbit         ...  NO
Zero-field splitting spin-spin          ...  NO
Hyperfine couplings                     ...  NO (   0 nuclei)
Quadrupole couplings                    ...  NO (   0 nuclei)
Contact density                         ...  NO (   0 nuclei)

NMR properties:
Chemical shifts                         ...  NO (   0 nuclei)
Spin-rotation constants                 ...  NO (   0 nuclei)
Spin-spin couplings                     ...  NO (   0 nuclei,    0 pairs)

Choice of magnetic origin               ... GIAO
Position of magnetic origin             ...     0.000000     0.000000     0.000000

Properties with geometric perturbations:
SCF Hessian                             ...  NO
IR spectrum                             ...  NO
VCD spectrum                            ...  NO
X-ray spectroscopy properties:
SCF XES/XAS/RIXS spectra                ...  NO

SCF SOC stabilization energy            ...  NO
Diagonal Born-Oppenheimer correction    ...  NO

-------------
DIPOLE MOMENT
-------------

Method             : SCF
Type of density    : Electron Density
Multiplicity       :   1
Irrep              :   0
Energy             :  -441.3724971306503448 Eh
Basis              : AO
                                X                 Y                 Z
Electronic contribution:      6.220592448       9.714450161       2.757352727
Nuclear contribution   :     -6.274584380      -9.790578575      -2.189729310
                        -----------------------------------------
Total Dipole Moment    :     -0.053991932      -0.076128414       0.567623417
                        -----------------------------------------
Magnitude (a.u.)       :      0.575245171
Magnitude (Debye)      :      1.462157026



--------------------
Rotational spectrum 
--------------------
 
Rotational constants in cm-1:             0.074601             0.035089             0.030921 
Rotational constants in MHz :          2236.470928          1051.948179           926.973638 

Dipole components along the rotational axes: 
x,y,z [a.u.] :     0.060673    -0.530616    -0.213712 
x,y,z [Debye]:     0.154220    -1.348717    -0.543213 

 

Dipole moment calculation done in   0.0 sec 

Maximum memory used throughout the entire PROP-calculation: 12.1 MB

--------------------------------
SUGGESTED CITATIONS FOR THIS RUN
--------------------------------

Below you find a list of papers that are relevant to this ORCA run
We neither can nor want to force you to cite these papers, but we appreciate if you do
You receive ORCA, which is the product of decades of hard work by many enthusiastic individuals, for free
The only thing we kindly ask in return is that you cite our papers,
We deeply appreciate it, if you show your appreciation for ORCA by not just citing the generic ORCA reference.

Please note that relegating all ORCA citations to the supporting information does *not* help us.
SI sections are not indexed - citations you put there will not count into any citation statistics
But we need these citations in order to attract the funding resources that allow us to do what we are doing

Therefore, if you are a happy ORCA user, please consider citing a few of the papers listed below in the main body of your paper

In addition to the list printed below, the program has created the file 2.bibtex that contains the list in bibtex format
You can import this file easily into all common literature databanks and citation aid programs


List of essential papers. We consider these as the minimum necessary citations

  1. Neese, F.
     Software update: the ORCA program system, version 6.0
     WIRES Comput. Molec. Sci. 2025 15(1), e70019
     doi.org/10.1002/wcms.7019

List of papers to cite with high priority. The work reported in these papers was absolutely
necessary for this run to complete.
Our perspective: the developers of density functionals and basis sets usually get cited in chemistry papers
Good! But without the algorithms to do something with them, the functionals or basis sets would not do anything.
Hence, in our opinion, the algorithm design and method developments papers are equally worthy of getting cited

  1. Neese, F.
     An improvement of the resolution of the identity approximation for the formation of the Coulomb matrix
     J. Comp. Chem. 2003 24(14), 1740-1747
     doi.org/10.1002/jcc.10318
  2. Grimme, S.
     Semiempirical GGA-type density functional constructed with a long-range dispersion correction
     J.Comput.Chem. 2006 27(15), 1787-1799
     doi.org/10.1002/jcc.20495
  3. Neese, F.
     The SHARK Integral Generation and Digestion System
     J. Comp. Chem. 2022 44(3), 381
     doi.org/10.1002/jcc.26942

List of suggested additional citations. These are papers that are important in the 'surrounding' of 
of this run, or papers that preceded the highly important papers. If you like your results we are grateful for a citation.

  1. Neese, F.
     The ORCA program system
     WIRES Comput. Molec. Sci. 2012 2(1), 73-78
     doi.org/10.1002/wcms.81
  2. Neese, F.
     Software update: the ORCA program system, version 4.0
     WIRES Comput. Molec. Sci. 2018 8(1), 1-6
     doi.org/10.1002/wcms.1327
  3. Neese, F.; Wennmohs, F.; Becker, U.; Riplinger, C.
     The ORCA quantum chemistry program package
     J. Chem. Phys. 2020 152(22), 224108
     doi.org/10.1063/5.0004608
  4. Neese, F.
     Software update: The ORCA program system—Version 5.0
     WIRES Comput. Molec. Sci. 2022 12(1), e1606
     doi.org/10.1002/wcms.1606

List of optional additional citations

  1. Neese, F.
     Approximate second-order SCF convergence for spin unrestricted wavefunctions
     Chem. Phys. Lett. 2000 325(1-3), 93-98
     doi.org/10.1016/s0009-2614(00)00662-x

Timings for individual modules:

Sum of individual times          ...        6.980 sec (=   0.116 min)
Startup calculation              ...        0.458 sec (=   0.008 min)   6.6 %
SCF iterations                   ...        6.490 sec (=   0.108 min)  93.0 %
Property calculations            ...        0.032 sec (=   0.001 min)   0.5 %
                             ****ORCA TERMINATED NORMALLY****
TOTAL RUN TIME: 0 days 0 hours 0 minutes 7 seconds 20 msec
