
                                 *****************
                                 * O   R   C   A *
                                 *****************

                                            #,                                       
                                            ###                                      
                                            ####                                     
                                            #####                                    
                                            ######                                   
                                           ########,                                 
                                     ,,################,,,,,                         
                               ,,#################################,,                 
                          ,,##########################################,,             
                       ,#########################################, ''#####,          
                    ,#############################################,,   '####,        
                  ,##################################################,,,,####,       
                ,###########''''           ''''###############################       
              ,#####''   ,,,,##########,,,,          '''####'''          '####       
            ,##' ,,,,###########################,,,                        '##       
           ' ,,###''''                  '''############,,,                           
         ,,##''                                '''############,,,,        ,,,,,,###''
      ,#''                                            '''#######################'''  
     '                                                          ''''####''''         
             ,#######,   #######,   ,#######,      ##                                
            ,#'     '#,  ##    ##  ,#'     '#,    #''#        ,####,    ,#,          
            ##       ##  ##   ,#'  ##            #'  '#       #'       ,# #          
            ##       ##  #######   ##           ,######,      #####,      #          
            '#,     ,#'  ##    ##  '#,     ,#' ,#      #,     #,   #      #          
             '#######'   ##     ##  '#######'  #'      '#     '####' #    #          



                #########################################################
                #                        -***-                          #
                #          Department of theory and spectroscopy        #
                #                                                       #
                #                      Frank Neese                      #
                #                                                       #
                #     Directorship, Architecture, Infrastructure        #
                #                    SHARK, DRIVERS                     #
                #        Core code/Algorithms in most modules           #
                #                                                       #
                #        Max Planck Institute fuer Kohlenforschung      #
                #                Kaiser Wilhelm Platz 1                 #
                #                 D-45470 Muelheim/Ruhr                 #
                #                      Germany                          #
                #                                                       #
                #                  All rights reserved                  #
                #                        -***-                          #
                #########################################################


                         Program Version 6.1.0  -  RELEASE   -
                                (GIT: $679e74b$)
                          ($2025-06-10 18:02:51 +0200$)


 With contributions from (in alphabetic order):
[Max-Planck-Institut fuer Kohlenforschung]                               
  Daniel Aravena         : Magnetic Suceptibility                        
  Michael Atanasov       : Ab Initio Ligand Field Theory (pilot matlab implementation)
  Alexander A. Auer      : GIAO ZORA, VPT2 properties, NMR spectrum      
  Ute Becker             : All parallelization in ORCA, NUMFREQ, NUMCALC 
  Giovanni Bistoni       : ED, misc. LED, open-shell LED, HFLD           
  Dmytro Bykov           : pre 5.0 version of the SCF Hessian            
  Marcos Casanova-Páez   : Triplet and SCS-CIS(D). UHF-(DLPNO)-IP/EA/STEOM-CCSD. UHF-CVS-IP/STEOM-CCSD   
  Vijay G. Chilkuri      : MRCI spin determinant printing, contributions to CSF-ICE 
  Pauline Colinet        : FMM embedding                                 
  Dipayan Datta          : RHF DLPNO-CCSD density                        
  Achintya Kumar Dutta   : EOM-CC, STEOM-CC                              
  Nicolas Foglia         : Exact transition moments, OPA infrastructure, MCD improvements    
  Dmitry Ganyushin       : Spin-Orbit,Spin-Spin,Magnetic field MRCI      
  Miquel Garcia-Rates    : C-PCM and meta-GGA Hessian, CCSD/C-PCM, Gaussian charge scheme 
  Tiago L. C. Gouveia    : GS-ROHF, GS-ROCIS                             
  Yang Guo               : DLPNO-NEVPT2, F12-NEVPT2, CIM, IAO-localization        
  Andreas Hansen         : Spin unrestricted coupled pair/coupled cluster methods 
  Ingolf Harden          : AUTO-CI MPn and infrastructure                
  Benjamin Helmich-Paris : MC-RPA, TRAH-(SCF,CASSCF), AVAS, COSX integrals, SCF dyn. polar., MC-PDFT, srDFT 
  Lee Huntington         : MR-EOM, pCC                                   
  Robert Izsak           : Overlap fitted RIJCOSX, COSX-SCS-MP3, EOM     
  Riya Kayal             : Wick's Theorem for AUTO-CI, AUTO-CI UHF-CCSDT 
  Emily Kempfer          : AUTO-CI RHF CISDT and CCSDT, approximate NEVPT4
  Christian Kollmar      : KDIIS, OOCD, Brueckner-CCSD(T), CCSD density, CASPT2, CASPT2-K, improved NEVPT2 
  Axel Koslowski         : Symmetry handling                             
  Simone Kossmann        : meta-GGA functionals, TD-DFT gradient, OOMP2, (MP2 Hessian; deprecated post 5.0) 
  Lucas Lang             : DCDCAS, Hyperfine gauge corrections, ICE-SOC+SSC
  Marvin Lechner         : AUTO-CI (C++ implementation), FIC-MRCC        
  Spencer Leger          : CASSCF response                               
  Dagmar Lenk            : GEPOL surface, SMD, ORCA-2-JSON               
  Dimitrios Liakos       : Extrapolation schemes; Compound Job, Property file
  Dimitrios Manganas     : Further ROCIS development; embedding schemes. LFT, Crystal Embedding 
  Dimitrios Pantazis     : SARC Basis sets                               
  Anastasios Papadopoulos: AUTO-CI, single reference methods and gradients 
  Taras Petrenko         : pre 6.0 DFT Hessian and TD-DFT gradient,  ECA, NRVS 
  Petra Pikulova         : Analytic Raman intensities                    
  Peter Pinski           : DLPNO-MP2, DLPNO-MP2 Gradient                 
  Shashank Vittal Rao    : ES-AILFT, MagRelax                            
  Christoph Reimann      : Effective Core Potentials                     
  Marius Retegan         : Local ZFS, SOC                                
  Christoph Riplinger    : Optimizer, TS searches, QM/MM, DLPNO-CCSD(T), (RO)-DLPNO pert. Triples 
  Michael Roemelt        : Original ROCIS implementation, recursive CI coupling coefficients
  Masaaki Saitow         : Open-shell DLPNO-CCSD energy and density      
  Barbara Sandhoefer     : DKH picture change effects                    
  Yorick L. A. Schmerwitz: GMF and freeze-and-release deltaSCF, NEB S-IDPP initial path                    
  Kantharuban Sivalingam : CASSCF convergence/infrastructure, NEVPT2, NEVPT3, NEVPT4(SD), FIC-MRCI and CEPA variants
  Bernardo de Souza      : ESD, SOC TD-DFT                               
  Georgi L. Stoychev     : AutoAux, RI-MP2 NMR, DLPNO-MP2 response, X2C  
  Van Anh Tran           : RI-MP2 g-tensors                              
  Willem Van den Heuvel  : Paramagnetic NMR                              
  Zikuan Wang            : NOTCH, Electric field optimization            
  Frank Wennmohs         : Technical directorship and infrastructure     
  Hang Xu                : AUTO-CI-Response properties                   
                                                                         
[FACCTs GmbH]                                                            
  Markus Bursch, Nicolas Foglia, Miquel Garcia-Rates, Ingolf Harden, Hagen Neugebauer, Anastasios Papadopoulos, 
  Christoph Riplinger, Bernardo de Souza, Georgi L. Stoychev                                                    
                                                                 
  APM, various basis sets, CI-OPT, improved COSX, DLPNO-Multilevel,           
  DOCKER, DRACO, updates on ESD, Fragmentator, GOAT, IRC, LR-CPCM, L-BFGS, MBIS, meta-GGA TD-DFT gradient, ML-optimized integration grids, 
  MM, NACMEs, nearIR, NEB, NEB-TS, NL-DFT gradient (VV10), 2- and 3-layer-ONIOM, interface openCOSMO-RS, QMMM,   
  Crystal-QMMM, RESP, rigid body optimization, SF, symmetry and pop. for TD-DFT, various functionals, SOLVATOR                                   
                                                                         
[Other institutions]                                                     
  V. Asgeirsson          : NEB                                           
  Christoph Bannwarth    : sTDA-DFT, sTD-DFT, PBEh-3c, B97-3c, D3        
  Giovanni Bistoni       : ETS/NOCV, ADLD/ADEX, COVALED                  
  Martin Brehm           : Molecular dynamics                            
  Ronald Cardenas        : ETS/NOCV                                      
  Martina Colucci        : COVALED                                       
  Sebastian Ehlert       : rSCAN, r2SCAN, r2SCAN-3c, D4, dhf basis sets  
  Marvin Friede          : D4 for Fr, Ra, Ac-Lr                          
  Lars Goerigk           : TD-DFT with DH, B97 family of functionals     
  Stefan Grimme          : VdW corrections, initial TS optimization, DFT functionals, gCP, sTDA/sTD-DF 
  Waldemar Hujo          : DFT-NL                                        
  H. Jonsson             : NEB                                           
  Holger Kruse           : gCP                                           
  Marcel Mueller         : wB97X-3c, vDZP basis set                      
  Hagen Neugebauer       : wr2SCAN, Native XTB                           
  Gianluca Regni         : ADLD/ADEX                                     
  Tobias Risthaus        : pre 6.0 range-separated hybrid DFT and stability analysis
  Lukas Wittmann         : regularized MP2, r2SCAN double-hybrids, wr2SCAN        
                                                                         
We gratefully acknowledge several colleagues who have allowed us to      
interface, adapt or use parts of their codes:                            
  Ed Valeev, F. Pavosevic, A. Kumar             : LibInt (2-el integral package), F12 methods 
  Garnet Chan, S. Sharma, J. Yang, R. Olivares  : DMRG                   
  Ulf Ekstrom                                   : XCFun DFT Library      
  Mihaly Kallay                                 : mrcc  (arbitrary order and MRCC methods)
  Frank Weinhold                                : gennbo (NPA and NBO analysis)           
  Simon Mueller                                 : openCOSMO-RS                            
  Christopher J. Cramer and Donald G. Truhlar   : smd solvation model                     
  S Lehtola, MJT Oliveira, MAL Marques          : LibXC Library                           
  Liviu Ungur et al                             : ANISO software                          


 Your calculation uses the libint2 library for the computation of 2-el integrals
 For citations please refer to: http://libint.valeyev.net

 Your ORCA version has been built with support for libXC version: 7.0.0
 For citations please refer to: https://libxc.gitlab.io

 This ORCA versions uses:
   CBLAS   interface :  Fast vector & matrix operations
   LAPACKE interface :  Fast linear algebra routines
   SCALAPACK package :  Parallel linear algebra routines
   Shared memory     :  Shared parallel matrices
   BLAS/LAPACK       :  OpenBLAS 0.3.29  USE64BITINT DYNAMIC_ARCH NO_AFFINITY Haswell SINGLE_THREADED
        Core in use  :  Haswell
   Copyright (c) 2011-2014, The OpenBLAS Project


  ***********************************
  * Starting time: Thu Aug 14 00:47:20 2025
  * Host name:     CHEMLAB02
  * Process ID:    1542265
  * Working dir.:  /home/vivek/mm-project/vivek/MP2/a/5
  ***********************************



***************************************
The coordinates will be read from file: /home/vivek/mm-project/vivek/xtb-goat/a/A_CONF/5.xyz
***************************************


================================================================================

----- Orbital basis set information -----
Your calculation utilizes the basis: 6-31G**
   H-He, Li-Ne : W. J. Hehre, R. Ditchfield and J.A. Pople, J. Chem. Phys. 56, 2257 (1972).
                 Note: He and Ne are unpublished basis sets taken from the Gaussian program.
                 Note: Li and B from J. D. Dill and J. A. Pople, J. Chem. Phys. 62, 2921 (1975).
   Na - Ar     : M. M. Francl, W. J. Pietro, W. J. Hehre, J. S. Binkley, M. S. Gordon, 
                 D. J. DeFrees and J. A. Pople, J. Chem. Phys. 77, 3654 (1982).
   K - Zn      : V. A. Rassolov, J. A. Pople, M. A. Ratner, and T. L. Windus, J. Chem. Phys. 109, 1223 (1998).

================================================================================
                                        WARNINGS
                       Please study these warnings very carefully!
================================================================================


WARNING: No MP2 level density has been requested!
         To calculate MP2 level properties use
         %mp2 Density relaxed end
         or
         %mp2 Density unrelaxed end

WARNING: Post HF methods need fully converged wavefunctions
  ===> : Setting SCFConvForced true
         You can overwrite this default with %scf ConvForced false 


================================================================================
                                       INPUT FILE
================================================================================
NAME = 5.inp
|  1> ! MP2 6-31G** 
|  2> 
|  3> * xyzfile 0 1 /home/vivek/mm-project/vivek/xtb-goat/a/A_CONF/5.xyz
|  4> 
|  5>                          ****END OF INPUT****
================================================================================

                       ****************************
                       * Single Point Calculation *
                       ****************************

---------------------------------
CARTESIAN COORDINATES (ANGSTROEM)
---------------------------------
  C     -4.535705   -0.305173   -1.961172
  O     -3.884470   -0.739000   -1.049812
  O     -3.987151    0.406378   -2.957289
  C     -6.032456   -0.473750   -2.093393
  H     -3.029877    0.480979   -2.821848
  N     -6.570013   -0.204858   -3.417654
  H     -6.263322   -1.509673   -1.813518
  H     -6.473127    0.167182   -1.317118
  H     -7.355476    0.431792   -3.373848
  H     -5.861895    0.212076   -4.009881

----------------------------
CARTESIAN COORDINATES (A.U.)
----------------------------
  NO LB      ZA    FRAG     MASS         X           Y           Z
   0 C     6.0000    0    12.011   -8.571241   -0.576694   -3.706079
   1 O     8.0000    0    15.999   -7.340585   -1.396507   -1.983858
   2 O     8.0000    0    15.999   -7.534624    0.767943   -5.588467
   3 C     6.0000    0    12.011  -11.399690   -0.895258   -3.955940
   4 H     1.0000    0     1.008   -5.725638    0.908919   -5.332520
   5 N     7.0000    0    14.007  -12.415525   -0.387126   -6.458431
   6 H     1.0000    0     1.008  -11.835963   -2.852868   -3.427052
   7 H     1.0000    0     1.008  -12.232437    0.315928   -2.488993
   8 H     1.0000    0     1.008  -13.899836    0.815969   -6.375648
   9 H     1.0000    0     1.008  -11.077377    0.400765   -7.577577

--------------------------------
INTERNAL COORDINATES (ANGSTROEM)
--------------------------------
 C      0   0   0     0.000000000000     0.00000000     0.00000000
 O      1   0   0     1.201203411371     0.00000000     0.00000000
 O      1   2   0     1.341441386704   122.22632527     0.00000000
 C      1   2   3     1.512006303976   124.24703454   181.25905138
 H      3   1   2     0.969682447128   109.92473003     1.21782458
 N      4   1   2     1.454282535293   115.14572101   196.10334478
 H      4   1   2     1.097618069113   106.92615367   317.61600118
 H      4   1   2     1.098902576137   105.67397924    70.93703150
 H      6   4   1     1.012025726512   111.33289259   230.19549065
 H      6   4   1     1.012914926776   110.49342143   350.19892374

---------------------------
INTERNAL COORDINATES (A.U.)
---------------------------
 C      0   0   0     0.000000000000     0.00000000     0.00000000
 O      1   0   0     2.269945478624     0.00000000     0.00000000
 O      1   2   0     2.534956845578   122.22632527     0.00000000
 C      1   2   3     2.857277827278   124.24703454   181.25905138
 H      3   1   2     1.832434261943   109.92473003     1.21782458
 N      4   1   2     2.748195713049   115.14572101   196.10334478
 H      4   1   2     2.074197550268   106.92615367   317.61600118
 H      4   1   2     2.076624916759   105.67397924    70.93703150
 H      6   4   1     1.912451463591   111.33289259   230.19549065
 H      6   4   1     1.914131808567   110.49342143   350.19892374

---------------------
BASIS SET INFORMATION
---------------------
There are 4 groups of distinct atoms

 Group   1 Type C   : 10s4p1d contracted to 3s2p1d pattern {631/31/1}
 Group   2 Type O   : 10s4p1d contracted to 3s2p1d pattern {631/31/1}
 Group   3 Type H   : 4s1p contracted to 2s1p pattern {31/1}
 Group   4 Type N   : 10s4p1d contracted to 3s2p1d pattern {631/31/1}

Atom   0C    basis set group =>   1
Atom   1O    basis set group =>   2
Atom   2O    basis set group =>   2
Atom   3C    basis set group =>   1
Atom   4H    basis set group =>   3
Atom   5N    basis set group =>   4
Atom   6H    basis set group =>   3
Atom   7H    basis set group =>   3
Atom   8H    basis set group =>   3
Atom   9H    basis set group =>   3
------------------------------------------------------------------------------
                             ORCA STARTUP CALCULATIONS
------------------------------------------------------------------------------
------------------------------------------------------------------------------
                   ___                                                        
                  /   \      - P O W E R E D   B Y -                         
                 /     \                                                     
                 |  |  |   _    _      __       _____    __    __             
                 |  |  |  | |  | |    /  \     |  _  \  |  |  /  |          
                  \  \/   | |  | |   /    \    | | | |  |  | /  /          
                 / \  \   | |__| |  /  /\  \   | |_| |  |  |/  /          
                |  |  |   |  __  | /  /__\  \  |    /   |      \           
                |  |  |   | |  | | |   __   |  |    \   |  |\   \          
                \     /   | |  | | |  |  |  |  | |\  \  |  | \   \       
                 \___/    |_|  |_| |__|  |__|  |_| \__\ |__|  \__/        
                                                                              
                      - O R C A' S   B I G   F R I E N D -                    
                                      &                                       
                       - I N T E G R A L  F E E D E R -                       
                                                                              
 v1 FN, 2020, v2 2021, v3 2022-2024                                           
------------------------------------------------------------------------------


----------------------
SHARK INTEGRAL PACKAGE
----------------------

Number of atoms                             ...     10
Number of basis functions                   ...     95
Number of shells                            ...     45
Maximum angular momentum                    ...      2
Integral batch strategy                     ... SHARK/LIBINT Hybrid
RI-J (if used) integral strategy            ... SPLIT-RIJ (Revised 2003 algorithm where possible)
Printlevel                                  ...      1
Contraction scheme used                     ... SEGMENTED contraction
Prescreening option                         ... SCHWARTZ
   Thresh                                   ... 1.000e-10
   Tcut                                     ... 1.000e-11
   Tpresel                                  ... 1.000e-11 
Coulomb Range Separation                    ... NOT USED
Exchange Range Separation                   ... NOT USED
Multipole approximations                    ... NOT USED
Finite Nucleus Model                        ... NOT USED
CABS basis                                  ... NOT available
Auxiliary Coulomb fitting basis             ... NOT available
Auxiliary J/K fitting basis                 ... NOT available
Auxiliary Correlation fitting basis         ... NOT available
Auxiliary 'external' fitting basis          ... NOT available

Checking pre-screening integrals            ... done (  0.0 sec) Dimension = 45
   => SHARK Basis and OBASIS are compatible. Storing Pre-screening
Shell pair information
Shell pair cut-off parameter TPreSel        ...   1.0e-11
Total number of shell pairs                 ...      1035
Shell pairs after pre-screening             ...      1004
Total number of primitive shell pairs       ...      5170
Primitive shell pairs kept                  ...      3704
          la=0 lb=0:    313 shell pairs
          la=1 lb=0:    362 shell pairs
          la=1 lb=1:    117 shell pairs
          la=2 lb=0:    123 shell pairs
          la=2 lb=1:     74 shell pairs
          la=2 lb=2:     15 shell pairs

Checking whether 4 symmetric matrices of dimension 95 fit in memory
:Max Core in MB      =   4096.00
 MB in use           =      2.62
 MB left             =   4093.38
 MB needed           =      0.14
 Data fit in memory  = YES
Calculating Nuclear repulsion               ... done (  0.0 sec) ENN=    180.509009692782 Eh

Diagonalization of the overlap matrix:
Smallest eigenvalue                        ... 4.282e-03
Time for diagonalization                   ...    0.001 sec
Threshold for overlap eigenvalues          ... 1.000e-07
Number of eigenvalues below threshold      ... 0
Time for construction of square roots      ...    0.000 sec
Total time needed                          ...    0.001 sec

-------------------
DFT GRID GENERATION
-------------------

General Integration Accuracy     IntAcc      ... 4.388
Radial Grid Type                 RadialGrid  ... OptM3 with GC (2021)
Angular Grid (max. ang.)         AngularGrid ... 4 (Lebedev-302)
Angular grid pruning method      GridPruning ... 4 (adaptive)
Weight generation scheme         WeightScheme... mBecke (2022)
Basis function cutoff            BFCut       ... 1.0000e-10
Integration weight cutoff        WCut        ... 1.0000e-14
Partially contracted basis set               ... off
Rotationally invariant grid construction     ... off
Angular grids for H and He will be reduced by one unit

Total number of grid points                  ...    46605
Total number of batches                      ...      733
Average number of points per batch           ...       63
Average number of grid points per atom       ...     4660
Grids setup in   0.1 sec
Initializing property integral containers    ... done (  0.0 sec)

SHARK setup successfully completed in   0.2 seconds

Maximum memory used throughout the entire STARTUP-calculation: 17.7 MB
-------------------------------------------------------------------------------
                                 ORCA GUESS
                   Start orbitals & Density for SCF / CASSCF
-------------------------------------------------------------------------------

------------
SCF SETTINGS
------------
Hamiltonian:
 Ab initio Hamiltonian  Method          .... Hartree-Fock(GTOs)


General Settings:
 Integral files         IntName         .... 5
 Hartree-Fock type      HFTyp           .... RHF
 Total Charge           Charge          ....    0
 Multiplicity           Mult            ....    1
 Number of Electrons    NEL             ....   40
 Basis Dimension        Dim             ....   95
 Nuclear Repulsion      ENuc            ....    180.5090096928 Eh

Convergence Acceleration:
 AO-DIIS                CNVDIIS         .... on
   Start iteration      DIISMaxIt       ....    12
   Startup error        DIISStart       ....  0.200000
   # of expansion vecs  DIISMaxEq       ....     5
   Bias factor          DIISBfac        ....   1.050
   Max. coefficient     DIISMaxC        ....  10.000
 MO-DIIS                CNVKDIIS        .... off
 Trust-Rad. Augm. Hess. CNVTRAH         .... auto
   Auto Start mean grad. ratio tolernc. ....  1.125000
   Auto Start start iteration           ....    50
   Auto Start num. interpolation iter.  ....    10
   Max. Number of Micro iterations      ....    24
   Max. Number of Macro iterations      .... Maxiter - #DIIS iter
   Number of Davidson start vectors     ....     2
   Converg. threshold    (grad. norm)   ....   5.000e-05
   Grad. Scal. Fac. for Micro threshold ....   0.100
   Minimum threshold for Micro iter.    ....   1.000e-02
   NR start threshold (gradient norm)   ....   1.000e-04
   Initial trust radius                 ....   0.400
   Minimum AH scaling param. (alpha)    ....   1.000
   Maximum AH scaling param. (alpha)    .... 1000.000
   Quad. conv. algorithm                .... NR
   White noise on init. David. guess    .... on
   Maximum white noise                  ....   0.010
   Pseudo random numbers                .... off
   Inactive MOs                         .... canonical
   Orbital update algorithm             .... Taylor
   Preconditioner                       .... Diag
   Full preconditioner red. dimension   ....   250
 SOSCF                 CNVSOSCF           .... on
   Start iteration     SOSCFMaxIt         ....   150
   Startup grad/error  SOSCFStart         ....  0.003300
   Hessian update      SOSCFHessUp        .... L-BFGS
   Autom. constraints  SOSCFAutoConstrain .... off
 Level Shifting         CNVShift        .... on
   Level shift para.    LevelShift      ....    0.2500
   Turn off err/grad.   ShiftErr        ....    0.0010
 Zerner damping         CNVZerner       .... off
 Static damping         CNVDamp         .... on
   Fraction old density DampFac         ....    0.7000
   Max. Damping (<1)    DampMax         ....    0.9800
   Min. Damping (>=0)   DampMin         ....    0.0000
   Turn off err/grad.   DampErr         ....    0.1000

SCF Procedure:
 Maximum # iterations   MaxIter         ....   125
 SCF integral mode      SCFMode         .... Direct
   Integral package                     .... SHARK and LIBINT hybrid scheme
 Reset frequency        DirectResetFreq ....    20
 Integral Threshold     Thresh          ....  1.000e-10 Eh
 Primitive CutOff       TCut            ....  1.000e-11 Eh

Convergence Tolerance:
 Convergence Check Mode ConvCheckMode   .... Total+1el-Energy
 Convergence forced     ConvForced      .... 1
 Energy Change          TolE            ....  1.000e-06 Eh
 1-El. energy change                    ....  1.000e-03 Eh
 Orbital Gradient       TolG            ....  5.000e-05
 Orbital Rotation angle TolX            ....  5.000e-05
 DIIS Error             TolErr          ....  1.000e-06

------------------------------
INITIAL GUESS: MODEL POTENTIAL
------------------------------
Loading Hartree-Fock densities                     ... done
Calculating cut-offs                               ... done
Initializing the effective Hamiltonian             ... done
Setting up the integral package (SHARK)            ... done
Starting the Coulomb interaction                   ... done (   0.0 sec)
Making the grid                                    ... done (   0.0 sec)
Mapping shells                                     ... done
Starting the XC term evaluation                    ... done (   0.0 sec)
Transforming the Hamiltonian                       ... done (   0.0 sec)
Diagonalizing the Hamiltonian                      ... done (   0.0 sec)
Back transforming the eigenvectors                 ... done (   0.0 sec)
Now organizing SCF variables                       ... done
                      ------------------
                      INITIAL GUESS DONE (   0.1 sec)
                      ------------------
             **** ENERGY FILE WAS UPDATED (5.en.tmp) ****
Finished Guess after   0.1 sec
Maximum memory used throughout the entire GUESS-calculation: 6.1 MB

-------------------------------------------------------------------------------------------
                                      ORCA LEAN-SCF
                              memory conserving SCF solver
-------------------------------------------------------------------------------------------

----------------------------------------D-I-I-S--------------------------------------------
Iteration    Energy (Eh)           Delta-E    RMSDP     MaxDP     DIISErr   Damp  Time(sec)
-------------------------------------------------------------------------------------------
               ***  Starting incremental Fock matrix formation  ***
    1    -282.5971536723410509     0.00e+00  3.64e-03  6.86e-02  2.56e-01  0.700   0.2
    2    -282.6851185172847636    -8.80e-02  2.64e-03  4.93e-02  1.57e-01  0.700   0.2
                               ***Turning on AO-DIIS***
    3    -282.7353234325097446    -5.02e-02  1.36e-03  2.17e-02  8.81e-02  0.700   0.2
    4    -282.7667441164019237    -3.14e-02  3.06e-03  4.32e-02  5.90e-02  0.000   0.2
    5    -282.8365325873550091    -6.98e-02  4.02e-04  5.08e-03  5.13e-03  0.000   0.2
                              *** Initializing SOSCF ***
---------------------------------------S-O-S-C-F--------------------------------------
Iteration    Energy (Eh)           Delta-E    RMSDP     MaxDP     MaxGrad    Time(sec)
--------------------------------------------------------------------------------------
    6    -282.8368624632845467    -3.30e-04  2.05e-04  2.59e-03  2.87e-03     0.2
               *** Restarting incremental Fock matrix formation ***
    7    -282.8369431685305244    -8.07e-05  1.30e-04  2.03e-03  1.65e-03     0.2
    8    -282.8369699457070965    -2.68e-05  1.56e-04  2.18e-03  5.09e-04     0.2
    9    -282.8369794528200600    -9.51e-06  2.73e-05  3.12e-04  2.72e-04     0.2
   10    -282.8369804114259978    -9.59e-07  8.31e-06  9.30e-05  6.28e-05     0.2
                 **** Energy Check signals convergence ****

               *****************************************************
               *                     SUCCESS                       *
               *           SCF CONVERGED AFTER  10 CYCLES          *
               *****************************************************

             **** ENERGY FILE WAS UPDATED (5.en.tmp) ****

----------------
TOTAL SCF ENERGY
----------------

Total Energy       :       -282.83698049364591 Eh           -7696.38552 eV

Components:
Nuclear Repulsion  :        180.50900969278186 Eh            4911.89987 eV
Electronic Energy  :       -463.34599018642774 Eh          -12608.28539 eV
One Electron Energy:       -744.67874188078463 Eh          -20263.73876 eV
Two Electron Energy:        281.33275169435689 Eh            7655.45337 eV

Virial components:
Potential Energy   :       -565.23193747784990 Eh          -15380.74296 eV
Kinetic Energy     :        282.39495698420399 Eh            7684.35744 eV
Virial Ratio       :          2.00156526700817

---------------
SCF CONVERGENCE
---------------

  Last Energy change         ...    9.5861e-07  Tolerance :   1.0000e-06
  Last MAX-Density change    ...    9.3040e-05  Tolerance :   1.0000e-05
  Last RMS-Density change    ...    8.3058e-06  Tolerance :   1.0000e-06
  Last DIIS Error            ...    2.8732e-03  Tolerance :   1.0000e-06
  Last Orbital Gradient      ...    6.2783e-05  Tolerance :   5.0000e-05
  Last Orbital Rotation      ...    9.9845e-05  Tolerance :   5.0000e-05


----------------
ORBITAL ENERGIES
----------------

  NO   OCC          E(Eh)            E(eV) 
   0   2.0000     -20.625241      -561.2413 
   1   2.0000     -20.555044      -559.3312 
   2   2.0000     -15.548965      -423.1088 
   3   2.0000     -11.393027      -310.0200 
   4   2.0000     -11.275287      -306.8162 
   5   2.0000      -1.474840       -40.1324 
   6   2.0000      -1.366191       -37.1759 
   7   2.0000      -1.190801       -32.4033 
   8   2.0000      -0.971913       -26.4471 
   9   2.0000      -0.835782       -22.7428 
  10   2.0000      -0.714892       -19.4532 
  11   2.0000      -0.690728       -18.7957 
  12   2.0000      -0.672340       -18.2953 
  13   2.0000      -0.626921       -17.0594 
  14   2.0000      -0.591458       -16.0944 
  15   2.0000      -0.574343       -15.6287 
  16   2.0000      -0.565777       -15.3956 
  17   2.0000      -0.484519       -13.1844 
  18   2.0000      -0.452828       -12.3221 
  19   2.0000      -0.395722       -10.7682 
  20   0.0000       0.176887         4.8133 
  21   0.0000       0.210919         5.7394 
  22   0.0000       0.244533         6.6541 
  23   0.0000       0.274682         7.4745 
  24   0.0000       0.319271         8.6878 
  25   0.0000       0.343503         9.3472 
  26   0.0000       0.405589        11.0366 
  27   0.0000       0.441957        12.0263 
  28   0.0000       0.483572        13.1587 
  29   0.0000       0.569592        15.4994 
  30   0.0000       0.742144        20.1948 
*Only the first 10 virtual orbitals were printed.

                    ********************************
                    * MULLIKEN POPULATION ANALYSIS *
                    ********************************

-----------------------
MULLIKEN ATOMIC CHARGES
-----------------------
   0 C :    0.779054
   1 O :   -0.576812
   2 O :   -0.646440
   3 C :   -0.098475
   4 H :    0.376876
   5 N :   -0.728730
   6 H :    0.170134
   7 H :    0.147645
   8 H :    0.275043
   9 H :    0.301705
Sum of atomic charges:    0.0000000

--------------------------------
MULLIKEN REDUCED ORBITAL CHARGES
--------------------------------
  0 C s       :     2.950899  s :     2.950899
      pz      :     0.642471  p :     2.122431
      px      :     0.852821
      py      :     0.627139
      dz2     :     0.039449  d :     0.147616
      dxz     :     0.034786
      dyz     :     0.028692
      dx2y2   :     0.025899
      dxy     :     0.018791

  1 O s       :     3.872080  s :     3.872080
      pz      :     1.469389  p :     4.671654
      px      :     1.682507
      py      :     1.519759
      dz2     :     0.010047  d :     0.033078
      dxz     :     0.007770
      dyz     :     0.006876
      dx2y2   :     0.003226
      dxy     :     0.005158

  2 O s       :     3.833561  s :     3.833561
      pz      :     1.656417  p :     4.787951
      px      :     1.390659
      py      :     1.740876
      dz2     :     0.006615  d :     0.024928
      dxz     :     0.004581
      dyz     :     0.006435
      dx2y2   :     0.006190
      dxy     :     0.001107

  3 C s       :     3.209536  s :     3.209536
      pz      :     0.858466  p :     2.826430
      px      :     0.866904
      py      :     1.101060
      dz2     :     0.016234  d :     0.062509
      dxz     :     0.010053
      dyz     :     0.016725
      dx2y2   :     0.015408
      dxy     :     0.004089

  4 H s       :     0.581446  s :     0.581446
      pz      :     0.007157  p :     0.041678
      px      :     0.026412
      py      :     0.008109

  5 N s       :     3.607857  s :     3.607857
      pz      :     1.203795  p :     4.088214
      px      :     1.248520
      py      :     1.635899
      dz2     :     0.009262  d :     0.032658
      dxz     :     0.008205
      dyz     :     0.003485
      dx2y2   :     0.000952
      dxy     :     0.010755

  6 H s       :     0.817558  s :     0.817558
      pz      :     0.001577  p :     0.012308
      px      :     0.001976
      py      :     0.008755

  7 H s       :     0.839535  s :     0.839535
      pz      :     0.005364  p :     0.012820
      px      :     0.003240
      py      :     0.004216

  8 H s       :     0.698511  s :     0.698511
      pz      :     0.003907  p :     0.026446
      px      :     0.012378
      py      :     0.010161

  9 H s       :     0.671356  s :     0.671356
      pz      :     0.008986  p :     0.026939
      px      :     0.010037
      py      :     0.007916



                     *******************************
                     * LOEWDIN POPULATION ANALYSIS *
                     *******************************

----------------------
LOEWDIN ATOMIC CHARGES
----------------------
   0 C :    0.241009
   1 O :   -0.303532
   2 O :   -0.214331
   3 C :   -0.059397
   4 H :    0.203244
   5 N :   -0.304647
   6 H :    0.088540
   7 H :    0.082361
   8 H :    0.131377
   9 H :    0.135376

-------------------------------
LOEWDIN REDUCED ORBITAL CHARGES
-------------------------------
  0 C s       :     2.842862  s :     2.842862
      pz      :     0.864485  p :     2.598427
      px      :     1.002801
      py      :     0.731140
      dz2     :     0.084997  d :     0.317702
      dxz     :     0.075498
      dyz     :     0.066310
      dx2y2   :     0.053396
      dxy     :     0.037501

  1 O s       :     3.547339  s :     3.547339
      pz      :     1.508870  p :     4.698633
      px      :     1.684238
      py      :     1.505526
      dz2     :     0.014418  d :     0.057560
      dxz     :     0.017799
      dyz     :     0.012043
      dx2y2   :     0.005710
      dxy     :     0.007590

  2 O s       :     3.458965  s :     3.458965
      pz      :     1.641642  p :     4.708168
      px      :     1.359969
      py      :     1.706557
      dz2     :     0.011028  d :     0.047198
      dxz     :     0.009612
      dyz     :     0.010939
      dx2y2   :     0.011557
      dxy     :     0.004061

  3 C s       :     2.884765  s :     2.884765
      pz      :     0.969635  p :     3.053537
      px      :     0.992191
      py      :     1.091710
      dz2     :     0.031749  d :     0.121095
      dxz     :     0.020820
      dyz     :     0.031018
      dx2y2   :     0.029986
      dxy     :     0.007522

  4 H s       :     0.675773  s :     0.675773
      pz      :     0.023213  p :     0.120983
      px      :     0.072488
      py      :     0.025282

  5 N s       :     3.181553  s :     3.181553
      pz      :     1.236279  p :     4.065189
      px      :     1.226299
      py      :     1.602611
      dz2     :     0.017320  d :     0.057905
      dxz     :     0.016715
      dyz     :     0.007056
      dx2y2   :     0.001388
      dxy     :     0.015427

  6 H s       :     0.872006  s :     0.872006
      pz      :     0.006271  p :     0.039453
      px      :     0.006772
      py      :     0.026410

  7 H s       :     0.878040  s :     0.878040
      pz      :     0.016664  p :     0.039599
      px      :     0.009394
      py      :     0.013541

  8 H s       :     0.786174  s :     0.786174
      pz      :     0.012749  p :     0.082449
      px      :     0.036030
      py      :     0.033671

  9 H s       :     0.779158  s :     0.779158
      pz      :     0.027862  p :     0.085466
      px      :     0.031013
      py      :     0.026591



                      *****************************
                      * MAYER POPULATION ANALYSIS *
                      *****************************

  NA   - Mulliken gross atomic population
  ZA   - Total nuclear charge
  QA   - Mulliken gross atomic charge
  VA   - Mayer's total valence
  BVA  - Mayer's bonded valence
  FA   - Mayer's free valence

  ATOM       NA         ZA         QA         VA         BVA        FA
  0 C      5.2209     6.0000     0.7791     3.7255     3.7255     0.0000
  1 O      8.5768     8.0000    -0.5768     1.8994     1.8994     0.0000
  2 O      8.6464     8.0000    -0.6464     1.8313     1.8313     0.0000
  3 C      6.0985     6.0000    -0.0985     3.7680     3.7680     0.0000
  4 H      0.6231     1.0000     0.3769     0.8691     0.8691     0.0000
  5 N      7.7287     7.0000    -0.7287     2.7107     2.7107    -0.0000
  6 H      0.8299     1.0000     0.1701     0.9355     0.9355     0.0000
  7 H      0.8524     1.0000     0.1476     0.9428     0.9428    -0.0000
  8 H      0.7250     1.0000     0.2750     0.9033     0.9033    -0.0000
  9 H      0.6983     1.0000     0.3017     0.8967     0.8967     0.0000

  Mayer bond orders larger than 0.100000
B(  0-C ,  1-O ) :   1.8323 B(  0-C ,  2-O ) :   0.9680 B(  0-C ,  3-C ) :   0.9429 
B(  2-O ,  4-H ) :   0.8369 B(  3-C ,  5-N ) :   0.9289 B(  3-C ,  6-H ) :   0.9562 
B(  3-C ,  7-H ) :   0.9560 B(  5-N ,  8-H ) :   0.9110 B(  5-N ,  9-H ) :   0.8901 


-------
TIMINGS
-------

Total SCF time: 0 days 0 hours 0 min 2 sec 

Total time                  ....       2.219 sec
Sum of individual times     ....       2.041 sec  ( 92.0%)

SCF preparation             ....       0.012 sec  (  0.6%)
Fock matrix formation       ....       2.016 sec  ( 90.9%)
  Startup                   ....       0.000 sec  (  0.0% of F)
  Coulomb+Exchange Fock     ....       2.188 sec  (108.5% of F)
Diagonalization             ....       0.000 sec  (  0.0%)
Density matrix formation    ....       0.001 sec  (  0.1%)
Total Energy calculation    ....       0.000 sec  (  0.0%)
Population analysis         ....       0.001 sec  (  0.1%)
Orbital Transformation      ....       0.001 sec  (  0.1%)
Orbital Orthonormalization  ....       0.000 sec  (  0.0%)
DIIS solution               ....       0.006 sec  (  0.3%)
SOSCF solution              ....       0.002 sec  (  0.1%)
Finished LeanSCF after   2.2 sec

Maximum memory used throughout the entire LEANSCF-calculation: 9.3 MB

------------------------------------------------------------------------------
                                ORCA  MP2 
------------------------------------------------------------------------------

Freezing NCore=10 chemical core electrons

----------
MP2 ENERGY (disk based algorithm)
----------

Dimension of the basis                      ...   95
Memory devoted to MP2                       ... 4096 MB   
Data format for buffers                     ... DOUBLE
Compression type for matrix containers      ... UNCOMPRESSED

-------------------------
SHARK HALF TRANSFORMATION (Exchange order)
-------------------------

Number of basis functions                   ...     95
Number of operators                         ...      1
   Operator  0:    5-  19 (p-index in (p*|q*))
   Operator  0:    5-  19 (q-index in (p*|q*)
Integral generator used                     ... SHARK
Contraction scheme used                     ... SEGMENTED CONTRACTION
MaxCore in resort                           ...   4096 MB

Half transformed integrals for op=   0      ... 5.SHARK_MNPQ0.tmp
Resorted half transformed integrals         ... 5.KAO_aa.tmp

Half trafo (segmented) done. Total time =  1.1 sec. integrals=  1.1 sec trafo=  0.1 sec

----------------------
SHARK INTEGRAL SORTING (Exchange)
----------------------

Input container                             ... 5.SHARK_MNPQ0.tmp
Output container                            ... 5.KAO_aa.tmp
Range of AO-indices                         ...    0 -   94
Range of bra indices i                      ...    5 -   19
Range of ket indices j                      ...    5 -   19
Symmetric i,j range                         ... YES
Number of (i,j) pairs generated             ...  120
Max Core memory in MB                       ...   4096

Available core memory in MB                 ...   4092.32
MB needed for one item                      ...      0.07
Fixed MB needed                             ...      0.00
Number of items                             ...       120
Number of batches                           ...         1
Items treated per batch                     ...       120
Batch   0                                   ...      0-   119 (   120)
   => Closing output file and leaving
done (  0.0 sec)

SHARK half integral transformation done. Total time =  1.1 sec.


Finished integral transformation - now doing MP2 part

OPERATOR COMBINATION   0   0: ij=(  5.. 19,  5.. 19)
  Internal MO   7
  Internal MO  10
  Internal MO  13
  Internal MO  16
  Internal MO  19
-----------------------------------------------
 MP2 CORRELATION ENERGY   :     -0.789500499 Eh
-----------------------------------------------


-------
TIMINGS
-------
Total time                :    1.140 sec
Integral trafo            :    1.132 sec ( 99.3%)
K(i,j)                    :    0.005 sec (  0.5%)
T(i,j)                    :    0.000 sec (  0.0%)

---------------------------------------
MP2 TOTAL ENERGY:     -283.626480993 Eh
---------------------------------------

Maximum memory used throughout the entire MP2-calculation: 19.6 MB

-------------------------   --------------------
FINAL SINGLE POINT ENERGY      -283.626480992722
-------------------------   --------------------


------------------------------------------------------------------------------
                              ORCA PROPERTY CALCULATIONS
------------------------------------------------------------------------------

GBWName                                 ... 5.gbw
Number of atoms                         ...     10
Number of basis functions               ...     95
Max core memory                         ...   4096 MB

Electric properties:
Dipole moment                           ... YES
Quadrupole moment                       ...  NO
Static polarizability (Dipole/Dipole)   ...  NO
Static polarizability (Dipole/Quad.)    ...  NO
Static polarizability (Quad./Quad.)     ...  NO
Static polarizability (Velocity)        ...  NO
Static hyperpolarizability              ...  NO

Atomic electric properties:
Dipole moment                           ...  NO
Quadrupole moment                       ...  NO
Static polarizability                   ...  NO

Choice of electric origin               ... Center of mass
Position of electric origin             ...    -9.417893    -0.447241    -4.383348

General magnetic properties:
Magnetizability                         ...  NO

EPR properties:
g-Tensor (aka g-matrix)                 ...  NO
Zero-Field splitting spin-orbit         ...  NO
Zero-field splitting spin-spin          ...  NO
Hyperfine couplings                     ...  NO (   0 nuclei)
Quadrupole couplings                    ...  NO (   0 nuclei)
Contact density                         ...  NO (   0 nuclei)

NMR properties:
Chemical shifts                         ...  NO (   0 nuclei)
Spin-rotation constants                 ...  NO (   0 nuclei)
Spin-spin couplings                     ...  NO (   0 nuclei,    0 pairs)

Choice of magnetic origin               ... GIAO
Position of magnetic origin             ...     0.000000     0.000000     0.000000

Properties with geometric perturbations:
SCF Hessian                             ...  NO
IR spectrum                             ...  NO
VCD spectrum                            ...  NO
X-ray spectroscopy properties:
SCF XES/XAS/RIXS spectra                ...  NO

SCF SOC stabilization energy            ...  NO
Diagonal Born-Oppenheimer correction    ...  NO

-------------
DIPOLE MOMENT
-------------

Method             : SCF
Type of density    : Electron Density
Multiplicity       :   1
Irrep              :   0
Energy             :  -282.8369804936459104 Eh
Basis              : AO
                                X                 Y                 Z
Electronic contribution:      3.646141921      -0.054107915       1.235316506
Nuclear contribution   :     -3.791449562       0.908258406      -1.627601156
                        -----------------------------------------
Total Dipole Moment    :     -0.145307641       0.854150492      -0.392284649
                        -----------------------------------------
Magnitude (a.u.)       :      0.951091278
Magnitude (Debye)      :      2.417481908



--------------------
Rotational spectrum 
--------------------
 
Rotational constants in cm-1:             0.336970             0.135817             0.099820 
Rotational constants in MHz :         10102.102477          4071.687270          2992.516832 

Dipole components along the rotational axes: 
x,y,z [a.u.] :     0.379518     0.645684    -0.586202 
x,y,z [Debye]:     0.964658     1.641199    -1.490007 

 

Dipole moment calculation done in   0.0 sec 

Maximum memory used throughout the entire PROP-calculation: 3.7 MB

--------------------------------
SUGGESTED CITATIONS FOR THIS RUN
--------------------------------

Below you find a list of papers that are relevant to this ORCA run
We neither can nor want to force you to cite these papers, but we appreciate if you do
You receive ORCA, which is the product of decades of hard work by many enthusiastic individuals, for free
The only thing we kindly ask in return is that you cite our papers,
We deeply appreciate it, if you show your appreciation for ORCA by not just citing the generic ORCA reference.

Please note that relegating all ORCA citations to the supporting information does *not* help us.
SI sections are not indexed - citations you put there will not count into any citation statistics
But we need these citations in order to attract the funding resources that allow us to do what we are doing

Therefore, if you are a happy ORCA user, please consider citing a few of the papers listed below in the main body of your paper

In addition to the list printed below, the program has created the file 5.bibtex that contains the list in bibtex format
You can import this file easily into all common literature databanks and citation aid programs


List of essential papers. We consider these as the minimum necessary citations

  1. Neese, F.
     Software update: the ORCA program system, version 6.0
     WIRES Comput. Molec. Sci. 2025 15(1), e70019
     doi.org/10.1002/wcms.7019

List of papers to cite with high priority. The work reported in these papers was absolutely
necessary for this run to complete.
Our perspective: the developers of density functionals and basis sets usually get cited in chemistry papers
Good! But without the algorithms to do something with them, the functionals or basis sets would not do anything.
Hence, in our opinion, the algorithm design and method developments papers are equally worthy of getting cited

  1. Neese, F.
     The SHARK Integral Generation and Digestion System
     J. Comp. Chem. 2022 44(3), 381
     doi.org/10.1002/jcc.26942

List of suggested additional citations. These are papers that are important in the 'surrounding' of 
of this run, or papers that preceded the highly important papers. If you like your results we are grateful for a citation.

  1. Neese, F.
     The ORCA program system
     WIRES Comput. Molec. Sci. 2012 2(1), 73-78
     doi.org/10.1002/wcms.81
  2. Neese, F.
     Software update: the ORCA program system, version 4.0
     WIRES Comput. Molec. Sci. 2018 8(1), 1-6
     doi.org/10.1002/wcms.1327
  3. Neese, F.; Wennmohs, F.; Becker, U.; Riplinger, C.
     The ORCA quantum chemistry program package
     J. Chem. Phys. 2020 152(22), 224108
     doi.org/10.1063/5.0004608
  4. Neese, F.
     Software update: The ORCA program system—Version 5.0
     WIRES Comput. Molec. Sci. 2022 12(1), e1606
     doi.org/10.1002/wcms.1606

List of optional additional citations

  1. Neese, F.
     Approximate second-order SCF convergence for spin unrestricted wavefunctions
     Chem. Phys. Lett. 2000 325(1-3), 93-98
     doi.org/10.1016/s0009-2614(00)00662-x

Timings for individual modules:

Sum of individual times          ...        3.662 sec (=   0.061 min)
Startup calculation              ...        0.173 sec (=   0.003 min)   4.7 %
SCF iterations                   ...        2.308 sec (=   0.038 min)  63.0 %
Property calculations            ...        0.020 sec (=   0.000 min)   0.6 %
MP2 module                       ...        1.161 sec (=   0.019 min)  31.7 %
                             ****ORCA TERMINATED NORMALLY****
TOTAL RUN TIME: 0 days 0 hours 0 minutes 3 seconds 695 msec
