
                                 *****************
                                 * O   R   C   A *
                                 *****************

                                            #,                                       
                                            ###                                      
                                            ####                                     
                                            #####                                    
                                            ######                                   
                                           ########,                                 
                                     ,,################,,,,,                         
                               ,,#################################,,                 
                          ,,##########################################,,             
                       ,#########################################, ''#####,          
                    ,#############################################,,   '####,        
                  ,##################################################,,,,####,       
                ,###########''''           ''''###############################       
              ,#####''   ,,,,##########,,,,          '''####'''          '####       
            ,##' ,,,,###########################,,,                        '##       
           ' ,,###''''                  '''############,,,                           
         ,,##''                                '''############,,,,        ,,,,,,###''
      ,#''                                            '''#######################'''  
     '                                                          ''''####''''         
             ,#######,   #######,   ,#######,      ##                                
            ,#'     '#,  ##    ##  ,#'     '#,    #''#        ,####,    ,#,          
            ##       ##  ##   ,#'  ##            #'  '#       #'       ,# #          
            ##       ##  #######   ##           ,######,      #####,      #          
            '#,     ,#'  ##    ##  '#,     ,#' ,#      #,     #,   #      #          
             '#######'   ##     ##  '#######'  #'      '#     '####' #    #          



                #########################################################
                #                        -***-                          #
                #          Department of theory and spectroscopy        #
                #                                                       #
                #                      Frank Neese                      #
                #                                                       #
                #     Directorship, Architecture, Infrastructure        #
                #                    SHARK, DRIVERS                     #
                #        Core code/Algorithms in most modules           #
                #                                                       #
                #        Max Planck Institute fuer Kohlenforschung      #
                #                Kaiser Wilhelm Platz 1                 #
                #                 D-45470 Muelheim/Ruhr                 #
                #                      Germany                          #
                #                                                       #
                #                  All rights reserved                  #
                #                        -***-                          #
                #########################################################


                         Program Version 6.1.0  -  RELEASE   -
                                (GIT: $679e74b$)
                          ($2025-06-10 18:02:51 +0200$)


 With contributions from (in alphabetic order):
[Max-Planck-Institut fuer Kohlenforschung]                               
  Daniel Aravena         : Magnetic Suceptibility                        
  Michael Atanasov       : Ab Initio Ligand Field Theory (pilot matlab implementation)
  Alexander A. Auer      : GIAO ZORA, VPT2 properties, NMR spectrum      
  Ute Becker             : All parallelization in ORCA, NUMFREQ, NUMCALC 
  Giovanni Bistoni       : ED, misc. LED, open-shell LED, HFLD           
  Dmytro Bykov           : pre 5.0 version of the SCF Hessian            
  Marcos Casanova-Páez   : Triplet and SCS-CIS(D). UHF-(DLPNO)-IP/EA/STEOM-CCSD. UHF-CVS-IP/STEOM-CCSD   
  Vijay G. Chilkuri      : MRCI spin determinant printing, contributions to CSF-ICE 
  Pauline Colinet        : FMM embedding                                 
  Dipayan Datta          : RHF DLPNO-CCSD density                        
  Achintya Kumar Dutta   : EOM-CC, STEOM-CC                              
  Nicolas Foglia         : Exact transition moments, OPA infrastructure, MCD improvements    
  Dmitry Ganyushin       : Spin-Orbit,Spin-Spin,Magnetic field MRCI      
  Miquel Garcia-Rates    : C-PCM and meta-GGA Hessian, CCSD/C-PCM, Gaussian charge scheme 
  Tiago L. C. Gouveia    : GS-ROHF, GS-ROCIS                             
  Yang Guo               : DLPNO-NEVPT2, F12-NEVPT2, CIM, IAO-localization        
  Andreas Hansen         : Spin unrestricted coupled pair/coupled cluster methods 
  Ingolf Harden          : AUTO-CI MPn and infrastructure                
  Benjamin Helmich-Paris : MC-RPA, TRAH-(SCF,CASSCF), AVAS, COSX integrals, SCF dyn. polar., MC-PDFT, srDFT 
  Lee Huntington         : MR-EOM, pCC                                   
  Robert Izsak           : Overlap fitted RIJCOSX, COSX-SCS-MP3, EOM     
  Riya Kayal             : Wick's Theorem for AUTO-CI, AUTO-CI UHF-CCSDT 
  Emily Kempfer          : AUTO-CI RHF CISDT and CCSDT, approximate NEVPT4
  Christian Kollmar      : KDIIS, OOCD, Brueckner-CCSD(T), CCSD density, CASPT2, CASPT2-K, improved NEVPT2 
  Axel Koslowski         : Symmetry handling                             
  Simone Kossmann        : meta-GGA functionals, TD-DFT gradient, OOMP2, (MP2 Hessian; deprecated post 5.0) 
  Lucas Lang             : DCDCAS, Hyperfine gauge corrections, ICE-SOC+SSC
  Marvin Lechner         : AUTO-CI (C++ implementation), FIC-MRCC        
  Spencer Leger          : CASSCF response                               
  Dagmar Lenk            : GEPOL surface, SMD, ORCA-2-JSON               
  Dimitrios Liakos       : Extrapolation schemes; Compound Job, Property file
  Dimitrios Manganas     : Further ROCIS development; embedding schemes. LFT, Crystal Embedding 
  Dimitrios Pantazis     : SARC Basis sets                               
  Anastasios Papadopoulos: AUTO-CI, single reference methods and gradients 
  Taras Petrenko         : pre 6.0 DFT Hessian and TD-DFT gradient,  ECA, NRVS 
  Petra Pikulova         : Analytic Raman intensities                    
  Peter Pinski           : DLPNO-MP2, DLPNO-MP2 Gradient                 
  Shashank Vittal Rao    : ES-AILFT, MagRelax                            
  Christoph Reimann      : Effective Core Potentials                     
  Marius Retegan         : Local ZFS, SOC                                
  Christoph Riplinger    : Optimizer, TS searches, QM/MM, DLPNO-CCSD(T), (RO)-DLPNO pert. Triples 
  Michael Roemelt        : Original ROCIS implementation, recursive CI coupling coefficients
  Masaaki Saitow         : Open-shell DLPNO-CCSD energy and density      
  Barbara Sandhoefer     : DKH picture change effects                    
  Yorick L. A. Schmerwitz: GMF and freeze-and-release deltaSCF, NEB S-IDPP initial path                    
  Kantharuban Sivalingam : CASSCF convergence/infrastructure, NEVPT2, NEVPT3, NEVPT4(SD), FIC-MRCI and CEPA variants
  Bernardo de Souza      : ESD, SOC TD-DFT                               
  Georgi L. Stoychev     : AutoAux, RI-MP2 NMR, DLPNO-MP2 response, X2C  
  Van Anh Tran           : RI-MP2 g-tensors                              
  Willem Van den Heuvel  : Paramagnetic NMR                              
  Zikuan Wang            : NOTCH, Electric field optimization            
  Frank Wennmohs         : Technical directorship and infrastructure     
  Hang Xu                : AUTO-CI-Response properties                   
                                                                         
[FACCTs GmbH]                                                            
  Markus Bursch, Nicolas Foglia, Miquel Garcia-Rates, Ingolf Harden, Hagen Neugebauer, Anastasios Papadopoulos, 
  Christoph Riplinger, Bernardo de Souza, Georgi L. Stoychev                                                    
                                                                 
  APM, various basis sets, CI-OPT, improved COSX, DLPNO-Multilevel,           
  DOCKER, DRACO, updates on ESD, Fragmentator, GOAT, IRC, LR-CPCM, L-BFGS, MBIS, meta-GGA TD-DFT gradient, ML-optimized integration grids, 
  MM, NACMEs, nearIR, NEB, NEB-TS, NL-DFT gradient (VV10), 2- and 3-layer-ONIOM, interface openCOSMO-RS, QMMM,   
  Crystal-QMMM, RESP, rigid body optimization, SF, symmetry and pop. for TD-DFT, various functionals, SOLVATOR                                   
                                                                         
[Other institutions]                                                     
  V. Asgeirsson          : NEB                                           
  Christoph Bannwarth    : sTDA-DFT, sTD-DFT, PBEh-3c, B97-3c, D3        
  Giovanni Bistoni       : ETS/NOCV, ADLD/ADEX, COVALED                  
  Martin Brehm           : Molecular dynamics                            
  Ronald Cardenas        : ETS/NOCV                                      
  Martina Colucci        : COVALED                                       
  Sebastian Ehlert       : rSCAN, r2SCAN, r2SCAN-3c, D4, dhf basis sets  
  Marvin Friede          : D4 for Fr, Ra, Ac-Lr                          
  Lars Goerigk           : TD-DFT with DH, B97 family of functionals     
  Stefan Grimme          : VdW corrections, initial TS optimization, DFT functionals, gCP, sTDA/sTD-DF 
  Waldemar Hujo          : DFT-NL                                        
  H. Jonsson             : NEB                                           
  Holger Kruse           : gCP                                           
  Marcel Mueller         : wB97X-3c, vDZP basis set                      
  Hagen Neugebauer       : wr2SCAN, Native XTB                           
  Gianluca Regni         : ADLD/ADEX                                     
  Tobias Risthaus        : pre 6.0 range-separated hybrid DFT and stability analysis
  Lukas Wittmann         : regularized MP2, r2SCAN double-hybrids, wr2SCAN        
                                                                         
We gratefully acknowledge several colleagues who have allowed us to      
interface, adapt or use parts of their codes:                            
  Ed Valeev, F. Pavosevic, A. Kumar             : LibInt (2-el integral package), F12 methods 
  Garnet Chan, S. Sharma, J. Yang, R. Olivares  : DMRG                   
  Ulf Ekstrom                                   : XCFun DFT Library      
  Mihaly Kallay                                 : mrcc  (arbitrary order and MRCC methods)
  Frank Weinhold                                : gennbo (NPA and NBO analysis)           
  Simon Mueller                                 : openCOSMO-RS                            
  Christopher J. Cramer and Donald G. Truhlar   : smd solvation model                     
  S Lehtola, MJT Oliveira, MAL Marques          : LibXC Library                           
  Liviu Ungur et al                             : ANISO software                          


 Your calculation uses the libint2 library for the computation of 2-el integrals
 For citations please refer to: http://libint.valeyev.net

 Your ORCA version has been built with support for libXC version: 7.0.0
 For citations please refer to: https://libxc.gitlab.io

 This ORCA versions uses:
   CBLAS   interface :  Fast vector & matrix operations
   LAPACKE interface :  Fast linear algebra routines
   SCALAPACK package :  Parallel linear algebra routines
   Shared memory     :  Shared parallel matrices
   BLAS/LAPACK       :  OpenBLAS 0.3.29  USE64BITINT DYNAMIC_ARCH NO_AFFINITY Haswell SINGLE_THREADED
        Core in use  :  Haswell
   Copyright (c) 2011-2014, The OpenBLAS Project


  ***********************************
  * Starting time: Sat Aug 30 15:13:45 2025
  * Host name:     chemlab03
  * Process ID:    77353
  * Working dir.:  /home/vivek/mm-project/vivek/xtb-goat/B97-D-opt/d/0
  ***********************************



***************************************
The coordinates will be read from file: /home/vivek/mm-project/vivek/xtb-goat/xtb-goat/d/D_CONF/0.xyz
***************************************


Your calculation utilizes empirical dispersion correction


Warning: RI is on but no J-basis has been assigned. Assigning Def2/J (nothing to worry about!)
================================================================================

----- Orbital basis set information -----
Your calculation utilizes the basis: 6-31G**
   H-He, Li-Ne : W. J. Hehre, R. Ditchfield and J.A. Pople, J. Chem. Phys. 56, 2257 (1972).
                 Note: He and Ne are unpublished basis sets taken from the Gaussian program.
                 Note: Li and B from J. D. Dill and J. A. Pople, J. Chem. Phys. 62, 2921 (1975).
   Na - Ar     : M. M. Francl, W. J. Pietro, W. J. Hehre, J. S. Binkley, M. S. Gordon, 
                 D. J. DeFrees and J. A. Pople, J. Chem. Phys. 77, 3654 (1982).
   K - Zn      : V. A. Rassolov, J. A. Pople, M. A. Ratner, and T. L. Windus, J. Chem. Phys. 109, 1223 (1998).

----- AuxJ basis set information -----
Your calculation utilizes the auxiliary basis: def2/J
   H-Rn: F. Weigend, Phys. Chem. Chem. Phys. 8, 1057 (2006).
   Fr-Lr: K. Eichkorn, F. Weigend, O. Treutler, R. Ahlrichs; Theor. Chem. Acc. 97, 119 (1997).

================================================================================
                                        WARNINGS
                       Please study these warnings very carefully!
================================================================================


WARNING: Geometry Optimization
  ===> : Switching off AutoStart
         For restart on a previous wavefunction, please use MOREAD

INFO   : The exchange functional is Grimme's B97(-D)
         As described in S. Grimme, J. Comput. Chem. 27, 1787 (2006).
         Note that this functional defaults to a pure GGA. 

INFO   : The correlation functional is Grimme's B97(-D)
         As described in S. Grimme, J. Comput. Chem. 27, 1787 (2006).

================================================================================
                                       INPUT FILE
================================================================================
NAME = 0.inp
|  1> ! B97-D 6-31G** opt
|  2> 
|  3> * xyzfile 0 1 /home/vivek/mm-project/vivek/xtb-goat/xtb-goat/d/D_CONF/0.xyz
|  4> 
|  5>                          ****END OF INPUT****
================================================================================

                       *****************************
                       * Geometry Optimization Run *
                       *****************************

Geometry optimization settings:
Update method            Update   .... BFGS
Choice of coordinates    CoordSys .... (2022) Redundant Internals
Initial Hessian          InHess   .... Almloef's Model
Max. no of cycles        MaxIter  .... 50

Convergence Tolerances:
Energy Change            TolE     ....  5.0000e-06 Eh
Max. Gradient            TolMAXG  ....  3.0000e-04 Eh/bohr
RMS Gradient             TolRMSG  ....  1.0000e-04 Eh/bohr
Max. Displacement        TolMAXD  ....  4.0000e-03 bohr
RMS Displacement         TolRMSD  ....  2.0000e-03 bohr
Strict Convergence                .... False

------------------------------------------------------------------------------
                        ORCA OPTIMIZATION COORDINATE SETUP
------------------------------------------------------------------------------

The optimization will be done in redundant internal coordinates (2022)
Making redundant internal coordinates   ...  (2022 redundants) done
Evaluating the initial hessian          ...  (Almloef) done
Evaluating the coordinates              ...  done
Calculating the B-matrix                .... done
Calculating the G-matrix                .... done
The number of degrees of freedom        ....   63

    -----------------------------------------------------------------
                    Redundant Internal Coordinates


    -----------------------------------------------------------------
         Definition                    Initial Value    Approx d2E/dq
    -----------------------------------------------------------------
      1. B(C   1,C   0)                  1.5073         0.406127   
      2. B(O   4,C   0)                  1.3355         0.683669   
      3. B(C   5,C   1)                  1.5306         0.372706   
      4. B(H   6,C   1)                  1.0903         0.359686   
      5. B(H   7,C   1)                  1.0907         0.359146   
      6. B(C   8,C   5)                  1.5314         0.371672   
      7. B(C   8,O   2)                  1.2000         1.124606   
      8. B(O   9,C   0)                  1.2019         1.116726   
      9. B(N  10,C   5)                  1.4496         0.449566   
     10. B(O  11,C   8)                  1.3377         0.678038   
     11. B(O  11,H   3)                  0.9706         0.500073   
     12. B(H  12,N  10)                  1.0155         0.424057   
     13. B(H  13,O   4)                  0.9706         0.500187   
     14. B(H  14,C   5)                  1.0988         0.348694   
     15. B(H  15,N  10)                  1.0164         0.422654   
     16. A(C   1,C   0,O   9)          125.4483         0.444280   
     17. A(C   1,C   0,O   4)          111.8380         0.406935   
     18. A(O   4,C   0,O   9)          122.7120         0.485439   
     19. A(C   5,C   1,H   7)          110.6979         0.324054   
     20. A(C   0,C   1,H   6)          108.8470         0.328749   
     21. A(H   6,C   1,H   7)          108.5166         0.290666   
     22. A(C   5,C   1,H   6)          109.6568         0.324134   
     23. A(C   0,C   1,C   5)          111.2049         0.368442   
     24. A(C   0,C   1,H   7)          107.8464         0.328667   
     25. A(C   0,O   4,H  13)          110.6244         0.373895   
     26. A(C   8,C   5,N  10)          112.1902         0.372412   
     27. A(C   1,C   5,N  10)          110.3278         0.372590   
     28. A(N  10,C   5,H  14)          107.8140         0.330605   
     29. A(C   8,C   5,H  14)          106.6006         0.322341   
     30. A(C   1,C   5,H  14)          108.6560         0.322488   
     31. A(C   1,C   5,C   8)          111.0690         0.362890   
     32. A(C   5,C   8,O  11)          112.9279         0.400036   
     33. A(O   2,C   8,O  11)          123.1903         0.485328   
     34. A(O   2,C   8,C   5)          123.7932         0.437776   
     35. A(H  12,N  10,H  15)          106.3318         0.301148   
     36. A(C   5,N  10,H  15)          108.9555         0.338415   
     37. A(C   5,N  10,H  12)          109.3432         0.338602   
     38. A(H   3,O  11,C   8)          109.8668         0.373347   
     39. D(H   6,C   1,C   0,O   9)    128.4770         0.012225   
     40. D(C   5,C   1,C   0,O   9)      7.5672         0.012225   
     41. D(H   6,C   1,C   0,O   4)    -51.9933         0.012225   
     42. D(C   5,C   1,C   0,O   4)   -172.9031         0.012225   
     43. D(H   7,C   1,C   0,O   4)     65.5509         0.012225   
     44. D(H  13,O   4,C   0,O   9)      0.0864         0.034848   
     45. D(H  13,O   4,C   0,C   1)   -179.4582         0.034848   
     46. D(N  10,C   5,C   1,H   7)   -166.8357         0.011095   
     47. D(N  10,C   5,C   1,H   6)    -47.1356         0.011095   
     48. D(N  10,C   5,C   1,C   0)     73.2972         0.011095   
     49. D(C   8,C   5,C   1,H   7)     68.1108         0.011095   
     50. D(C   8,C   5,C   1,H   6)   -172.1891         0.011095   
     51. D(C   8,C   5,C   1,C   0)    -51.7563         0.011095   
     52. D(O   2,C   8,C   5,N  10)     18.9946         0.010338   
     53. D(O   2,C   8,C   5,C   1)    142.9948         0.010338   
     54. D(O  11,C   8,C   5,N  10)   -164.3375         0.010338   
     55. D(O  11,C   8,C   5,C   1)    -40.3373         0.010338   
     56. D(O   2,C   8,C   5,H  14)    -98.8044         0.010338   
     57. D(H  15,N  10,C   5,C   1)    -62.4411         0.017241   
     58. D(H  12,N  10,C   5,H  14)     63.2178         0.017241   
     59. D(H  12,N  10,C   5,C   8)    -53.8574         0.017241   
     60. D(H  15,N  10,C   5,C   8)     61.9711         0.017241   
     61. D(H  12,N  10,C   5,C   1)   -178.2695         0.017241   
     62. D(H   3,O  11,C   8,C   5)    179.4686         0.034224   
     63. D(H   3,O  11,C   8,O   2)     -3.8404         0.034224   
    -----------------------------------------------------------------

Number of atoms                         .... 16
Number of degrees of freedom            .... 63


         *************************************************************
         *                GEOMETRY OPTIMIZATION CYCLE   1            *
         *************************************************************
---------------------------------
CARTESIAN COORDINATES (ANGSTROEM)
---------------------------------
  C     -4.353168    1.452192    1.284957
  C     -3.954221    1.290224   -0.159492
  O     -1.992888    4.237750    0.416962
  H     -4.165591    4.968691    0.015917
  O     -5.345331    0.624276    1.622145
  C     -2.706535    2.114914   -0.485073
  H     -3.757989    0.235605   -0.354569
  H     -4.796632    1.605693   -0.776338
  C     -2.878270    3.571025   -0.043026
  O     -3.863276    2.228750    2.060570
  N     -1.530413    1.500630    0.098642
  O     -4.103420    4.049024   -0.288119
  H     -0.716749    2.074192   -0.101889
  H     -5.593640    0.749114    2.552052
  H     -2.570962    2.131735   -1.575308
  H     -1.630725    1.490509    1.110028

----------------------------
CARTESIAN COORDINATES (A.U.)
----------------------------
  NO LB      ZA    FRAG     MASS         X           Y           Z
   0 C     6.0000    0    12.011   -8.226295    2.744246    2.428217
   1 C     6.0000    0    12.011   -7.472396    2.438170   -0.301395
   2 O     8.0000    0    15.999   -3.766013    8.008187    0.787944
   3 H     1.0000    0     1.008   -7.871825    9.389465    0.030079
   4 O     8.0000    0    15.999  -10.101211    1.179710    3.065409
   5 C     6.0000    0    12.011   -5.114610    3.996609   -0.916654
   6 H     1.0000    0     1.008   -7.101570    0.445229   -0.670039
   7 H     1.0000    0     1.008   -9.064321    3.034319   -1.467066
   8 C     6.0000    0    12.011   -5.439141    6.748258   -0.081307
   9 O     8.0000    0    15.999   -7.300534    4.211726    3.893912
  10 N     7.0000    0    14.007   -2.892062    2.835780    0.186406
  11 O     8.0000    0    15.999   -7.754339    7.651546   -0.544466
  12 H     1.0000    0     1.008   -1.354459    3.919655   -0.192543
  13 H     1.0000    0     1.008  -10.570448    1.415621    4.822679
  14 H     1.0000    0     1.008   -4.858414    4.028396   -2.976901
  15 H     1.0000    0     1.008   -3.081624    2.816654    2.097649

--------------------------------
INTERNAL COORDINATES (ANGSTROEM)
--------------------------------
 C      0   0   0     0.000000000000     0.00000000     0.00000000
 C      1   0   0     1.507257161969     0.00000000     0.00000000
 O      2   1   0     3.587065222158    84.39996929     0.00000000
 H      3   2   1     2.327175975157    73.73446192   278.61110867
 O      1   2   3     1.335488078579   111.83796061   170.57766145
 C      2   1   3     1.530633528681   111.20485321    16.51928844
 H      2   1   3     1.090313475675   108.84695627   137.42906583
 H      2   1   3     1.090722471437   107.84639472   254.97324988
 C      3   2   1     1.200005009718    22.84379760   248.46307830
 O      1   2   3     1.201919143900   125.44825857   351.04793975
 N      6   2   1     1.449596443278   110.32780687    73.29721657
 O      4   3   2     0.970613563965    72.33667462   343.90897729
 H     11   6   2     1.015497606299   109.34321957   181.73046111
 H      5   1   2     0.970551400497   110.62444076   180.54176561
 H      6   2   1     1.098761577060   108.65602612   191.29366088
 H     11   6   2     1.016399200436   108.95545402   297.55893412

---------------------------
INTERNAL COORDINATES (A.U.)
---------------------------
 C      0   0   0     0.000000000000     0.00000000     0.00000000
 C      1   0   0     2.848303249512     0.00000000     0.00000000
 O      2   1   0     6.778570894392    84.39996929     0.00000000
 H      3   2   1     4.397725258487    73.73446192   278.61110867
 O      1   2   3     2.523706723631   111.83796061   170.57766145
 C      2   1   3     2.892478180604   111.20485321    16.51928844
 H      2   1   3     2.060393869149   108.84695627   137.42906583
 H      2   1   3     2.061166759129   107.84639472   254.97324988
 C      3   2   1     2.267680827700    22.84379760   248.46307830
 O      1   2   3     2.271298017088   125.44825857   351.04793975
 N      6   2   1     2.739340282501   110.32780687    73.29721657
 O      4   3   2     1.834193817764    72.33667462   343.90897729
 H     11   6   2     1.919012365558   109.34321957   181.73046111
 H      5   1   2     1.834076345833   110.62444076   180.54176561
 H      6   2   1     2.076358467119   108.65602612   191.29366088
 H     11   6   2     1.920716131561   108.95545402   297.55893412

---------------------
BASIS SET INFORMATION
---------------------
There are 4 groups of distinct atoms

 Group   1 Type C   : 10s4p1d contracted to 3s2p1d pattern {631/31/1}
 Group   2 Type O   : 10s4p1d contracted to 3s2p1d pattern {631/31/1}
 Group   3 Type H   : 4s1p contracted to 2s1p pattern {31/1}
 Group   4 Type N   : 10s4p1d contracted to 3s2p1d pattern {631/31/1}

Atom   0C    basis set group =>   1
Atom   1C    basis set group =>   1
Atom   2O    basis set group =>   2
Atom   3H    basis set group =>   3
Atom   4O    basis set group =>   2
Atom   5C    basis set group =>   1
Atom   6H    basis set group =>   3
Atom   7H    basis set group =>   3
Atom   8C    basis set group =>   1
Atom   9O    basis set group =>   2
Atom  10N    basis set group =>   4
Atom  11O    basis set group =>   2
Atom  12H    basis set group =>   3
Atom  13H    basis set group =>   3
Atom  14H    basis set group =>   3
Atom  15H    basis set group =>   3
---------------------------------
AUXILIARY/J BASIS SET INFORMATION
---------------------------------
There are 4 groups of distinct atoms

 Group   1 Type C   : 12s5p4d2f1g contracted to 6s4p3d1f1g pattern {711111/2111/211/2/1}
 Group   2 Type O   : 12s5p4d2f1g contracted to 6s4p3d1f1g pattern {711111/2111/211/2/1}
 Group   3 Type H   : 5s2p1d contracted to 3s1p1d pattern {311/2/1}
 Group   4 Type N   : 12s5p4d2f1g contracted to 6s4p3d1f1g pattern {711111/2111/211/2/1}

Atom   0C    basis set group =>   1
Atom   1C    basis set group =>   1
Atom   2O    basis set group =>   2
Atom   3H    basis set group =>   3
Atom   4O    basis set group =>   2
Atom   5C    basis set group =>   1
Atom   6H    basis set group =>   3
Atom   7H    basis set group =>   3
Atom   8C    basis set group =>   1
Atom   9O    basis set group =>   2
Atom  10N    basis set group =>   4
Atom  11O    basis set group =>   2
Atom  12H    basis set group =>   3
Atom  13H    basis set group =>   3
Atom  14H    basis set group =>   3
Atom  15H    basis set group =>   3
------------------------------------------------------------------------------
                             ORCA STARTUP CALCULATIONS
                           -- RI-GTO INTEGRALS CHOSEN --
------------------------------------------------------------------------------
------------------------------------------------------------------------------
                   ___                                                        
                  /   \      - P O W E R E D   B Y -                         
                 /     \                                                     
                 |  |  |   _    _      __       _____    __    __             
                 |  |  |  | |  | |    /  \     |  _  \  |  |  /  |          
                  \  \/   | |  | |   /    \    | | | |  |  | /  /          
                 / \  \   | |__| |  /  /\  \   | |_| |  |  |/  /          
                |  |  |   |  __  | /  /__\  \  |    /   |      \           
                |  |  |   | |  | | |   __   |  |    \   |  |\   \          
                \     /   | |  | | |  |  |  |  | |\  \  |  | \   \       
                 \___/    |_|  |_| |__|  |__|  |_| \__\ |__|  \__/        
                                                                              
                      - O R C A' S   B I G   F R I E N D -                    
                                      &                                       
                       - I N T E G R A L  F E E D E R -                       
                                                                              
 v1 FN, 2020, v2 2021, v3 2022-2024                                           
------------------------------------------------------------------------------


----------------------
SHARK INTEGRAL PACKAGE
----------------------

Number of atoms                             ...     16
Number of basis functions                   ...    161
Number of shells                            ...     75
Maximum angular momentum                    ...      2
Integral batch strategy                     ... SHARK/LIBINT Hybrid
RI-J (if used) integral strategy            ... SPLIT-RIJ (Revised 2003 algorithm where possible)
Printlevel                                  ...      1
Contraction scheme used                     ... SEGMENTED contraction
Prescreening option                         ... SCHWARTZ
   Thresh                                   ... 2.500e-11
   Tcut                                     ... 2.500e-12
   Tpresel                                  ... 2.500e-12 
Coulomb Range Separation                    ... NOT USED
Exchange Range Separation                   ... NOT USED
Multipole approximations                    ... NOT USED
Finite Nucleus Model                        ... NOT USED
CABS basis                                  ... NOT available
Auxiliary Coulomb fitting basis             ... AVAILABLE
   # of basis functions in Aux-J            ...    518
   # of shells in Aux-J                     ...    170
   Maximum angular momentum in Aux-J        ...      4
Auxiliary J/K fitting basis                 ... NOT available
Auxiliary Correlation fitting basis         ... NOT available
Auxiliary 'external' fitting basis          ... NOT available

Checking pre-screening integrals            ... done (  0.0 sec) Dimension = 75
   => SHARK Basis and OBASIS are compatible. Storing Pre-screening
Shell pair information
Shell pair cut-off parameter TPreSel        ...   2.5e-12
Total number of shell pairs                 ...      2850
Shell pairs after pre-screening             ...      2640
Total number of primitive shell pairs       ...     14745
Primitive shell pairs kept                  ...      9100
          la=0 lb=0:    782 shell pairs
          la=1 lb=0:    944 shell pairs
          la=1 lb=1:    306 shell pairs
          la=2 lb=0:    350 shell pairs
          la=2 lb=1:    214 shell pairs
          la=2 lb=2:     44 shell pairs

Checking whether 4 symmetric matrices of dimension 161 fit in memory
:Max Core in MB      =   4096.00
 MB in use           =      7.05
 MB left             =   4088.95
 MB needed           =      0.40
 Data fit in memory  = YES
Calculating RI/J V-Matrix + Cholesky decomp.... done (  0.0 sec)
Calculating Nuclear repulsion               ... done (  0.0 sec) ENN=    485.167383368656 Eh

Diagonalization of the overlap matrix:
Smallest eigenvalue                        ... 2.790e-03
Time for diagonalization                   ...    0.001 sec
Threshold for overlap eigenvalues          ... 1.000e-07
Number of eigenvalues below threshold      ... 0
Time for construction of square roots      ...    0.000 sec
Total time needed                          ...    0.002 sec

-------------------
DFT GRID GENERATION
-------------------

General Integration Accuracy     IntAcc      ... 4.388
Radial Grid Type                 RadialGrid  ... OptM3 with GC (2021)
Angular Grid (max. ang.)         AngularGrid ... 4 (Lebedev-302)
Angular grid pruning method      GridPruning ... 4 (adaptive)
Weight generation scheme         WeightScheme... mBecke (2022)
Basis function cutoff            BFCut       ... 1.0000e-11
Integration weight cutoff        WCut        ... 1.0000e-14
Partially contracted basis set               ... off
Rotationally invariant grid construction     ... off
Angular grids for H and He will be reduced by one unit

Total number of grid points                  ...    76902
Total number of batches                      ...     1212
Average number of points per batch           ...       63
Average number of grid points per atom       ...     4806
Grids setup in   0.3 sec
Initializing property integral containers    ... done (  0.0 sec)

SHARK setup successfully completed in   0.4 seconds

Maximum memory used throughout the entire STARTUP-calculation: 32.4 MB
-------------------------------------------------------------------------------
                                 ORCA GUESS
                   Start orbitals & Density for SCF / CASSCF
-------------------------------------------------------------------------------

------------
SCF SETTINGS
------------
Hamiltonian:
 Density Functional     Method          .... DFT(GTOs)
 Exchange Functional    Exchange        .... B97(D)
 Correlation Functional Correlation     .... B97(D)
 Gradients option       PostSCFGGA      .... off
 RI-approximation to the Coulomb term is turned on
   Number of AuxJ basis functions       .... 518


General Settings:
 Integral files         IntName         .... 0
 Hartree-Fock type      HFTyp           .... RHF
 Total Charge           Charge          ....    0
 Multiplicity           Mult            ....    1
 Number of Electrons    NEL             ....   70
 Basis Dimension        Dim             ....  161
 Nuclear Repulsion      ENuc            ....    485.1673833687 Eh

Convergence Acceleration:
 AO-DIIS                CNVDIIS         .... on
   Start iteration      DIISMaxIt       ....    12
   Startup error        DIISStart       ....  0.200000
   # of expansion vecs  DIISMaxEq       ....     5
   Bias factor          DIISBfac        ....   1.050
   Max. coefficient     DIISMaxC        ....  10.000
 MO-DIIS                CNVKDIIS        .... off
 Trust-Rad. Augm. Hess. CNVTRAH         .... auto
   Auto Start mean grad. ratio tolernc. ....  1.125000
   Auto Start start iteration           ....    50
   Auto Start num. interpolation iter.  ....    10
   Max. Number of Micro iterations      ....    24
   Max. Number of Macro iterations      .... Maxiter - #DIIS iter
   Number of Davidson start vectors     ....     2
   Converg. threshold    (grad. norm)   ....   1.000e-05
   Grad. Scal. Fac. for Micro threshold ....   0.100
   Minimum threshold for Micro iter.    ....   1.000e-02
   NR start threshold (gradient norm)   ....   1.000e-04
   Initial trust radius                 ....   0.400
   Minimum AH scaling param. (alpha)    ....   1.000
   Maximum AH scaling param. (alpha)    .... 1000.000
   Quad. conv. algorithm                .... NR
   White noise on init. David. guess    .... on
   Maximum white noise                  ....   0.010
   Pseudo random numbers                .... off
   Inactive MOs                         .... canonical
   Orbital update algorithm             .... Taylor
   Preconditioner                       .... Diag
   Full preconditioner red. dimension   ....   250
 SOSCF                 CNVSOSCF           .... on
   Start iteration     SOSCFMaxIt         ....   150
   Startup grad/error  SOSCFStart         ....  0.003300
   Hessian update      SOSCFHessUp        .... L-BFGS
   Autom. constraints  SOSCFAutoConstrain .... off
 Level Shifting         CNVShift        .... on
   Level shift para.    LevelShift      ....    0.2500
   Turn off err/grad.   ShiftErr        ....    0.0010
 Zerner damping         CNVZerner       .... off
 Static damping         CNVDamp         .... on
   Fraction old density DampFac         ....    0.7000
   Max. Damping (<1)    DampMax         ....    0.9800
   Min. Damping (>=0)   DampMin         ....    0.0000
   Turn off err/grad.   DampErr         ....    0.1000

SCF Procedure:
 Maximum # iterations   MaxIter         ....   125
 SCF integral mode      SCFMode         .... Direct
   Integral package                     .... SHARK and LIBINT hybrid scheme
 Reset frequency        DirectResetFreq ....    20
 Integral Threshold     Thresh          ....  2.500e-11 Eh
 Primitive CutOff       TCut            ....  2.500e-12 Eh

Convergence Tolerance:
 Convergence Check Mode ConvCheckMode   .... Total+1el-Energy
 Convergence forced     ConvForced      .... 0
 Energy Change          TolE            ....  1.000e-08 Eh
 1-El. energy change                    ....  1.000e-05 Eh
 Orbital Gradient       TolG            ....  1.000e-05
 Orbital Rotation angle TolX            ....  1.000e-05
 DIIS Error             TolErr          ....  5.000e-07

------------------------------
INITIAL GUESS: MODEL POTENTIAL
------------------------------
Loading Hartree-Fock densities                     ... done
Calculating cut-offs                               ... done
Initializing the effective Hamiltonian             ... done
Setting up the integral package (SHARK)            ... done
Starting the Coulomb interaction                   ... done (   0.0 sec)
Making the grid                                    ... done (   0.1 sec)
Mapping shells                                     ... done
Starting the XC term evaluation                    ... done (   0.1 sec)
  promolecular density results
     # of electrons  =     69.995555190
     EX              =    -61.072504318
     EC              =     -3.177915616
     EX+EC           =    -64.250419934
Transforming the Hamiltonian                       ... done (   0.0 sec)
Diagonalizing the Hamiltonian                      ... done (   0.0 sec)
Back transforming the eigenvectors                 ... done (   0.0 sec)
Now organizing SCF variables                       ... done
                      ------------------
                      INITIAL GUESS DONE (   0.2 sec)
                      ------------------
             **** ENERGY FILE WAS UPDATED (0.en.tmp) ****
Finished Guess after   0.2 sec
Maximum memory used throughout the entire GUESS-calculation: 11.8 MB

-------------------------------------------------------------------------------------------
                                      ORCA LEAN-SCF
                              memory conserving SCF solver
-------------------------------------------------------------------------------------------

----------------------------------------D-I-I-S--------------------------------------------
Iteration    Energy (Eh)           Delta-E    RMSDP     MaxDP     DIISErr   Damp  Time(sec)
-------------------------------------------------------------------------------------------
               ***  Starting incremental Fock matrix formation  ***
    1    -511.6126441999243752     0.00e+00  4.56e-03  1.08e-01  2.58e-01  0.700   0.4
    2    -511.7992858801103466    -1.87e-01  2.67e-03  5.60e-02  9.33e-02  0.700   0.4
                               ***Turning on AO-DIIS***
    3    -511.8515128051209331    -5.22e-02  9.37e-04  1.46e-02  3.30e-02  0.700   0.4
    4    -511.8881555033198083    -3.66e-02  1.22e-03  1.99e-02  1.58e-02  0.000   0.4
    5    -511.9747364218137591    -8.66e-02  4.52e-04  7.96e-03  1.24e-02  0.000   0.4
    6    -511.9756037009051397    -8.67e-04  1.61e-04  2.48e-03  3.80e-03  0.000   0.4
                              *** Initializing SOSCF ***
---------------------------------------S-O-S-C-F--------------------------------------
Iteration    Energy (Eh)           Delta-E    RMSDP     MaxDP     MaxGrad    Time(sec)
--------------------------------------------------------------------------------------
    7    -511.9756701033837771    -6.64e-05  6.06e-05  1.01e-03  1.27e-03     0.4
               *** Restarting incremental Fock matrix formation ***
    8    -511.9756804247848549    -1.03e-05  4.01e-05  6.92e-04  1.23e-04     0.4
    9    -511.9756804079843278     1.68e-08  2.08e-05  5.95e-04  3.65e-04     0.3
   10    -511.9756811292477323    -7.21e-07  2.04e-05  3.86e-04  2.08e-04     0.3
   11    -511.9756812685621981    -1.39e-07  8.12e-06  1.65e-04  5.94e-05     0.3
   12    -511.9756814451149012    -1.77e-07  6.43e-06  1.08e-04  1.98e-05     0.3
   13    -511.9756814573012207    -1.22e-08  2.19e-06  3.35e-05  1.57e-05     0.3
   14    -511.9756814673872896    -1.01e-08  2.14e-06  3.63e-05  1.63e-05     0.3
   15    -511.9756814680760044    -6.89e-10  1.11e-06  2.84e-05  2.45e-05     0.3
                 **** Energy Check signals convergence ****

               *****************************************************
               *                     SUCCESS                       *
               *           SCF CONVERGED AFTER  15 CYCLES          *
               *****************************************************

             **** ENERGY FILE WAS UPDATED (0.en.tmp) ****

----------------
TOTAL SCF ENERGY
----------------

Total Energy       :       -511.97568146747017 Eh          -13931.56656 eV

Components:
Nuclear Repulsion  :        485.16738336865603 Eh           13202.07568 eV
Electronic Energy  :       -997.14306483612620 Eh          -27133.64224 eV
One Electron Energy:      -1663.69908172025953 Eh          -45271.55357 eV
Two Electron Energy:        666.55601688413333 Eh           18137.91133 eV

Virial components:
Potential Energy   :      -1021.40170141707267 Eh          -27793.75330 eV
Kinetic Energy     :        509.42601994960251 Eh           13862.18674 eV
Virial Ratio       :          2.00500496915748

DFT components:
N(Alpha)           :       35.000007741736 electrons
N(Beta)            :       35.000007741736 electrons
N(Total)           :       70.000015483472 electrons
E(X)               :      -62.260147833293 Eh       
E(C)               :       -3.165339297264 Eh       
E(XC)              :      -65.425487130557 Eh       

---------------
SCF CONVERGENCE
---------------

  Last Energy change         ...    6.8871e-10  Tolerance :   1.0000e-08
  Last MAX-Density change    ...    2.8439e-05  Tolerance :   1.0000e-07
  Last RMS-Density change    ...    1.1148e-06  Tolerance :   5.0000e-09
  Last DIIS Error            ...    1.2654e-03  Tolerance :   5.0000e-07
  Last Orbital Gradient      ...    2.4474e-05  Tolerance :   1.0000e-05
  Last Orbital Rotation      ...    2.9989e-05  Tolerance :   1.0000e-05


----------------
ORBITAL ENERGIES
----------------

  NO   OCC          E(Eh)            E(eV) 
   0   2.0000     -18.821204      -512.1510 
   1   2.0000     -18.809124      -511.8223 
   2   2.0000     -18.764025      -510.5951 
   3   2.0000     -18.745469      -510.0901 
   4   2.0000     -13.983269      -380.5041 
   5   2.0000     -10.043042      -273.2851 
   6   2.0000     -10.023770      -272.7606 
   7   2.0000      -9.953527      -270.8492 
   8   2.0000      -9.927903      -270.1520 
   9   2.0000      -1.030980       -28.0544 
  10   2.0000      -1.015462       -27.6321 
  11   2.0000      -0.942834       -25.6558 
  12   2.0000      -0.926416       -25.2091 
  13   2.0000      -0.815490       -22.1906 
  14   2.0000      -0.708970       -19.2920 
  15   2.0000      -0.632374       -17.2078 
  16   2.0000      -0.570220       -15.5165 
  17   2.0000      -0.532289       -14.4843 
  18   2.0000      -0.466581       -12.6963 
  19   2.0000      -0.452586       -12.3155 
  20   2.0000      -0.430876       -11.7247 
  21   2.0000      -0.422133       -11.4868 
  22   2.0000      -0.411119       -11.1871 
  23   2.0000      -0.408925       -11.1274 
  24   2.0000      -0.383898       -10.4464 
  25   2.0000      -0.371893       -10.1197 
  26   2.0000      -0.345166        -9.3924 
  27   2.0000      -0.338584        -9.2133 
  28   2.0000      -0.326799        -8.8926 
  29   2.0000      -0.321202        -8.7404 
  30   2.0000      -0.283707        -7.7201 
  31   2.0000      -0.267278        -7.2730 
  32   2.0000      -0.235136        -6.3984 
  33   2.0000      -0.218866        -5.9556 
  34   2.0000      -0.194826        -5.3015 
  35   0.0000      -0.024376        -0.6633 
  36   0.0000      -0.006657        -0.1812 
  37   0.0000       0.048780         1.3274 
  38   0.0000       0.055765         1.5174 
  39   0.0000       0.079586         2.1656 
  40   0.0000       0.108530         2.9532 
  41   0.0000       0.124123         3.3775 
  42   0.0000       0.147196         4.0054 
  43   0.0000       0.153806         4.1853 
  44   0.0000       0.178946         4.8694 
  45   0.0000       0.192404         5.2356 
*Only the first 10 virtual orbitals were printed.

                    ********************************
                    * MULLIKEN POPULATION ANALYSIS *
                    ********************************

-----------------------
MULLIKEN ATOMIC CHARGES
-----------------------
   0 C :    0.520546
   1 C :   -0.269720
   2 O :   -0.418421
   3 H :    0.318627
   4 O :   -0.456897
   5 C :   -0.058948
   6 H :    0.158832
   7 H :    0.159573
   8 C :    0.525678
   9 O :   -0.411122
  10 N :   -0.561776
  11 O :   -0.466426
  12 H :    0.251493
  13 H :    0.321592
  14 H :    0.135123
  15 H :    0.251845
Sum of atomic charges:    0.0000000

--------------------------------
MULLIKEN REDUCED ORBITAL CHARGES
--------------------------------
  0 C s       :     2.975081  s :     2.975081
      pz      :     0.896101  p :     2.377243
      px      :     0.743452
      py      :     0.737690
      dz2     :     0.033527  d :     0.127130
      dxz     :     0.020351
      dyz     :     0.022799
      dx2y2   :     0.024514
      dxy     :     0.025939

  1 C s       :     3.241515  s :     3.241515
      pz      :     0.956810  p :     2.994796
      px      :     0.990349
      py      :     1.047638
      dz2     :     0.009024  d :     0.033409
      dxz     :     0.007765
      dyz     :     0.003090
      dx2y2   :     0.008018
      dxy     :     0.005512

  2 O s       :     3.857154  s :     3.857154
      pz      :     1.407109  p :     4.532927
      px      :     1.521257
      py      :     1.604561
      dz2     :     0.004952  d :     0.028341
      dxz     :     0.006240
      dyz     :     0.003876
      dx2y2   :     0.006246
      dxy     :     0.007026

  3 H s       :     0.643405  s :     0.643405
      pz      :     0.010421  p :     0.037968
      px      :     0.007332
      py      :     0.020214

  4 O s       :     3.828946  s :     3.828946
      pz      :     1.406288  p :     4.605021
      px      :     1.541147
      py      :     1.657585
      dz2     :     0.007155  d :     0.022931
      dxz     :     0.002402
      dyz     :     0.002658
      dx2y2   :     0.005094
      dxy     :     0.005622

  5 C s       :     3.203147  s :     3.203147
      pz      :     1.026790  p :     2.798625
      px      :     0.873730
      py      :     0.898105
      dz2     :     0.014393  d :     0.057175
      dxz     :     0.008245
      dyz     :     0.005282
      dx2y2   :     0.014781
      dxy     :     0.014475

  6 H s       :     0.829423  s :     0.829423
      pz      :     0.002622  p :     0.011745
      px      :     0.002626
      py      :     0.006496

  7 H s       :     0.828491  s :     0.828491
      pz      :     0.003956  p :     0.011936
      px      :     0.004914
      py      :     0.003066

  8 C s       :     2.972276  s :     2.972276
      pz      :     0.782739  p :     2.377031
      px      :     0.708021
      py      :     0.886271
      dz2     :     0.012792  d :     0.125014
      dxz     :     0.023353
      dyz     :     0.013299
      dx2y2   :     0.044644
      dxy     :     0.030926

  9 O s       :     3.867382  s :     3.867382
      pz      :     1.561148  p :     4.515350
      px      :     1.536665
      py      :     1.417536
      dz2     :     0.005900  d :     0.028390
      dxz     :     0.005414
      dyz     :     0.006590
      dx2y2   :     0.006097
      dxy     :     0.004389

 10 N s       :     3.588894  s :     3.588894
      pz      :     1.210528  p :     3.944418
      px      :     1.097845
      py      :     1.636045
      dz2     :     0.011183  d :     0.028463
      dxz     :     0.002017
      dyz     :     0.002178
      dx2y2   :     0.002668
      dxy     :     0.010417

 11 O s       :     3.825931  s :     3.825931
      pz      :     1.745298  p :     4.617830
      px      :     1.494797
      py      :     1.377736
      dz2     :     0.002904  d :     0.022665
      dxz     :     0.005089
      dyz     :     0.002375
      dx2y2   :     0.008864
      dxy     :     0.003433

 12 H s       :     0.724609  s :     0.724609
      pz      :     0.005435  p :     0.023898
      px      :     0.009380
      py      :     0.009082

 13 H s       :     0.640430  s :     0.640430
      pz      :     0.020614  p :     0.037978
      px      :     0.008920
      py      :     0.008445

 14 H s       :     0.853804  s :     0.853804
      pz      :     0.006570  p :     0.011073
      px      :     0.001977
      py      :     0.002526

 15 H s       :     0.724154  s :     0.724154
      pz      :     0.011899  p :     0.024001
      px      :     0.004583
      py      :     0.007520



                     *******************************
                     * LOEWDIN POPULATION ANALYSIS *
                     *******************************

----------------------
LOEWDIN ATOMIC CHARGES
----------------------
   0 C :    0.123100
   1 C :   -0.147794
   2 O :   -0.216400
   3 H :    0.182303
   4 O :   -0.132366
   5 C :   -0.044819
   6 H :    0.101037
   7 H :    0.103021
   8 C :    0.102558
   9 O :   -0.211231
  10 N :   -0.249079
  11 O :   -0.145485
  12 H :    0.131017
  13 H :    0.184685
  14 H :    0.090700
  15 H :    0.128751

-------------------------------
LOEWDIN REDUCED ORBITAL CHARGES
-------------------------------
  0 C s       :     2.844475  s :     2.844475
      pz      :     1.007316  p :     2.731215
      px      :     0.851730
      py      :     0.872170
      dz2     :     0.081537  d :     0.301210
      dxz     :     0.045393
      dyz     :     0.053547
      dx2y2   :     0.053291
      dxy     :     0.067442

  1 C s       :     2.907736  s :     2.907736
      pz      :     1.036260  p :     3.163297
      px      :     1.049224
      py      :     1.077814
      dz2     :     0.023173  d :     0.076760
      dxz     :     0.017332
      dyz     :     0.006820
      dx2y2   :     0.015993
      dxy     :     0.013443

  2 O s       :     3.551278  s :     3.551278
      pz      :     1.412820  p :     4.606821
      px      :     1.565847
      py      :     1.628154
      dz2     :     0.007887  d :     0.058301
      dxz     :     0.012414
      dyz     :     0.007921
      dx2y2   :     0.012481
      dxy     :     0.017598

  3 H s       :     0.701790  s :     0.701790
      pz      :     0.030477  p :     0.115907
      px      :     0.020601
      py      :     0.064829

  4 O s       :     3.468832  s :     3.468832
      pz      :     1.412471  p :     4.613026
      px      :     1.547505
      py      :     1.653049
      dz2     :     0.015771  d :     0.050509
      dxz     :     0.007662
      dyz     :     0.005156
      dx2y2   :     0.008221
      dxy     :     0.013698

  5 C s       :     2.880441  s :     2.880441
      pz      :     1.053278  p :     3.034691
      px      :     0.975220
      py      :     1.006193
      dz2     :     0.031033  d :     0.129687
      dxz     :     0.018082
      dyz     :     0.011785
      dx2y2   :     0.034669
      dxy     :     0.034119

  6 H s       :     0.857097  s :     0.857097
      pz      :     0.008117  p :     0.041866
      px      :     0.007719
      py      :     0.026030

  7 H s       :     0.855299  s :     0.855299
      pz      :     0.013772  p :     0.041680
      px      :     0.018829
      py      :     0.009079

  8 C s       :     2.857478  s :     2.857478
      pz      :     0.826261  p :     2.740347
      px      :     0.919204
      py      :     0.994882
      dz2     :     0.028638  d :     0.299617
      dxz     :     0.054925
      dyz     :     0.029437
      dx2y2   :     0.112723
      dxy     :     0.073894

  9 O s       :     3.552939  s :     3.552939
      pz      :     1.600589  p :     4.599776
      px      :     1.541706
      py      :     1.457481
      dz2     :     0.011007  d :     0.058515
      dxz     :     0.010550
      dyz     :     0.017293
      dx2y2   :     0.009324
      dxy     :     0.010341

 10 N s       :     3.196839  s :     3.196839
      pz      :     1.234838  p :     3.994860
      px      :     1.144762
      py      :     1.615260
      dz2     :     0.021350  d :     0.057380
      dxz     :     0.007465
      dyz     :     0.003186
      dx2y2   :     0.006065
      dxy     :     0.019314

 11 O s       :     3.469364  s :     3.469364
      pz      :     1.713792  p :     4.625395
      px      :     1.526835
      py      :     1.384767
      dz2     :     0.006307  d :     0.050727
      dxz     :     0.008464
      dyz     :     0.004559
      dx2y2   :     0.020354
      dxy     :     0.011042

 12 H s       :     0.789616  s :     0.789616
      pz      :     0.014540  p :     0.079367
      px      :     0.033644
      py      :     0.031183

 13 H s       :     0.699803  s :     0.699803
      pz      :     0.066078  p :     0.115512
      px      :     0.025165
      py      :     0.024269

 14 H s       :     0.870512  s :     0.870512
      pz      :     0.025489  p :     0.038788
      px      :     0.006336
      py      :     0.006963

 15 H s       :     0.791415  s :     0.791415
      pz      :     0.045683  p :     0.079834
      px      :     0.011866
      py      :     0.022285



                      *****************************
                      * MAYER POPULATION ANALYSIS *
                      *****************************

  NA   - Mulliken gross atomic population
  ZA   - Total nuclear charge
  QA   - Mulliken gross atomic charge
  VA   - Mayer's total valence
  BVA  - Mayer's bonded valence
  FA   - Mayer's free valence

  ATOM       NA         ZA         QA         VA         BVA        FA
  0 C      5.4795     6.0000     0.5205     3.9814     3.9814     0.0000
  1 C      6.2697     6.0000    -0.2697     3.8044     3.8044     0.0000
  2 O      8.4184     8.0000    -0.4184     2.1229     2.1229     0.0000
  3 H      0.6814     1.0000     0.3186     0.9184     0.9184    -0.0000
  4 O      8.4569     8.0000    -0.4569     2.0474     2.0474     0.0000
  5 C      6.0589     6.0000    -0.0589     3.8871     3.8871    -0.0000
  6 H      0.8412     1.0000     0.1588     0.9531     0.9531     0.0000
  7 H      0.8404     1.0000     0.1596     0.9524     0.9524     0.0000
  8 C      5.4743     6.0000     0.5257     3.9589     3.9589     0.0000
  9 O      8.4111     8.0000    -0.4111     2.1153     2.1153    -0.0000
 10 N      7.5618     7.0000    -0.5618     2.9023     2.9023     0.0000
 11 O      8.4664     8.0000    -0.4664     2.0169     2.0169     0.0000
 12 H      0.7485     1.0000     0.2515     0.9275     0.9275     0.0000
 13 H      0.6784     1.0000     0.3216     0.9141     0.9141     0.0000
 14 H      0.8649     1.0000     0.1351     0.9461     0.9461    -0.0000
 15 H      0.7482     1.0000     0.2518     0.9303     0.9303     0.0000

  Mayer bond orders larger than 0.100000
B(  0-C ,  1-C ) :   0.9543 B(  0-C ,  4-O ) :   1.1004 B(  0-C ,  9-O ) :   1.8834 
B(  1-C ,  5-C ) :   0.9667 B(  1-C ,  6-H ) :   0.9237 B(  1-C ,  7-H ) :   0.9223 
B(  2-O ,  8-C ) :   1.9323 B(  3-H , 11-O ) :   0.8521 B(  4-O , 13-H ) :   0.8514 
B(  5-C ,  8-C ) :   0.8902 B(  5-C , 10-N ) :   1.0663 B(  5-C , 14-H ) :   0.9237 
B(  8-C , 11-O ) :   1.0618 B( 10-N , 12-H ) :   0.8996 B( 10-N , 15-H ) :   0.8964 


-------
TIMINGS
-------

Total SCF time: 0 days 0 hours 0 min 5 sec 

Total time                  ....       5.845 sec
Sum of individual times     ....       5.479 sec  ( 93.7%)

SCF preparation             ....       0.030 sec  (  0.5%)
Fock matrix formation       ....       5.407 sec  ( 92.5%)
  Startup                   ....       0.001 sec  (  0.0% of F)
  Split-RI-J                ....       1.787 sec  ( 33.1% of F)
  XC integration            ....       3.925 sec  ( 72.6% of F)
    XC Preparation          ....       0.000 sec  (  0.0% of XC)
    Basis function eval.    ....       1.385 sec  ( 35.3% of XC)
    Density eval.           ....       0.840 sec  ( 21.4% of XC)
    XC-Functional eval.     ....       0.751 sec  ( 19.1% of XC)
    XC-Potential eval.      ....       0.854 sec  ( 21.8% of XC)
Diagonalization             ....       0.000 sec  (  0.0%)
Density matrix formation    ....       0.004 sec  (  0.1%)
Total Energy calculation    ....       0.001 sec  (  0.0%)
Population analysis         ....       0.002 sec  (  0.0%)
Orbital Transformation      ....       0.004 sec  (  0.1%)
Orbital Orthonormalization  ....       0.000 sec  (  0.0%)
DIIS solution               ....       0.020 sec  (  0.3%)
SOSCF solution              ....       0.012 sec  (  0.2%)
Finished LeanSCF after   5.8 sec

Maximum memory used throughout the entire LEANSCF-calculation: 17.6 MB



-------------------------------------------------------------------------------
                          DFT DISPERSION CORRECTION                            
-------------------------------------------------------------------------------
Active option DFTDOPT                   ...         2   
Final C6-coefficient scaling factor     ...     1.250
Final VDW-radii scaling factor          ...     1.100
Damping factor alpha                    ...    20.000
-------------------------   ----------------
Dispersion correction           -0.020419968
-------------------------   ----------------


-------------------------   --------------------
FINAL SINGLE POINT ENERGY      -511.996101435848
-------------------------   --------------------

------------------------------------------------------------------------------
                         ORCA SCF GRADIENT CALCULATION
------------------------------------------------------------------------------

Nuc. rep. gradient        (SHARK) ... done (  0.0 sec)
HCore & Overlap gradient  (SHARK) ... done (  0.1 sec)
Split-RIJ-J gradient      (SHARK) ... done (  0.5 sec)
XC gradient                       ... done (  1.9 sec)
Dispersion correction             ... done (  0.0 sec)

-------------------
DISPERSION GRADIENT
-------------------

   1   C   :   -0.000370275   -0.000255081   -0.000709114
   2   C   :    0.000303765    0.000916965   -0.000056695
   3   O   :   -0.000427077    0.000774732   -0.000302336
   4   H   :    0.000403546    0.000227610    0.000046372
   5   O   :   -0.000241177   -0.000061722    0.000569764
   6   C   :   -0.000636255   -0.000214941    0.000921197
   7   H   :   -0.000565581    0.000356622   -0.000212738
   8   H   :    0.000038990   -0.000980099   -0.000023524
   9   C   :   -0.000463843   -0.000818760    0.000366125
  10   O   :   -0.000698041   -0.000406252   -0.000052708
  11   N   :    0.000169370    0.000629995   -0.000611744
  12   O   :    0.000182369    0.000451138   -0.000162329
  13   H   :    0.000572950   -0.000433191    0.000324698
  14   H   :    0.000251697    0.000271813    0.000082699
  15   H   :    0.000197742   -0.000061686   -0.000201164
  16   H   :    0.001281822   -0.000397142    0.000021497

Difference to translation invariance:
           :    0.0000000000   -0.0000000000   -0.0000000000

Difference to rotation invariance:
           :    0.0000000000    0.0000000000    0.0000000000

Norm of the Dispersion gradient    ...    0.0033557424
RMS gradient                       ...    0.0004843597
MAX gradient                       ...    0.0012818219

------------------
CARTESIAN GRADIENT
------------------

   1   C   :    0.004568880    0.008820448    0.009834997
   2   C   :   -0.001496763    0.001045323    0.003526448
   3   O   :   -0.024997061   -0.018096806   -0.011622660
   4   H   :   -0.004826260   -0.002822599   -0.002169145
   5   O   :    0.018879431    0.020307178    0.005572552
   6   C   :   -0.000346633    0.001088505   -0.002083021
   7   H   :   -0.000276399    0.005328020    0.002448857
   8   H   :    0.004347391   -0.000382834    0.003062786
   9   C   :    0.000012482    0.006131798    0.006191150
  10   O   :   -0.015564167   -0.021282418   -0.024350389
  11   N   :   -0.004413120    0.011756945    0.003590744
  12   O   :    0.026894375   -0.000713859    0.010473499
  13   H   :   -0.001436415   -0.003378365   -0.000847773
  14   H   :   -0.003338635   -0.004716656   -0.003395396
  15   H   :    0.001589301    0.000120209    0.002887206
  16   H   :    0.000403592   -0.003204889   -0.003119856

Difference to translation invariance:
           :    0.0000000000   -0.0000000000   -0.0000000000

Difference to rotation invariance:
           :   -0.0000012615   -0.0000031138   -0.0001107568

Norm of the Cartesian gradient     ...    0.0682736578
RMS gradient                       ...    0.0098544537
MAX gradient                       ...    0.0268943750

-------
TIMINGS
-------

Total SCF gradient time     ....        2.498 sec

Densities                   ....       0.000 sec  (  0.0%)
One electron gradient       ....       0.082 sec  (  3.3%)
RI-J Coulomb gradient       ....       0.514 sec  ( 20.6%)
XC gradient                 ....       1.901 sec  ( 76.1%)

Maximum memory used throughout the entire SCFGRAD-calculation: 22.8 MB
------------------------------------------------------------------------------
                         ORCA GEOMETRY RELAXATION STEP
------------------------------------------------------------------------------

Reading the OPT-File                    .... done
Getting information on internals        .... done
Copying old internal coords+grads       .... done
Making the new internal coordinates     .... (2022 redundants) done
Validating the new internal coordinates .... (2022 redundants) done
Calculating the B-matrix                .... done
Calculating the G,G- and P matrices     .... done
Transforming gradient to internals      .... done
Projecting the internal gradient        .... done
Number of atoms                         ....  16
Number of internal coordinates          ....  63
Current Energy                          ....  -511.996101436 Eh
Current gradient norm                   ....     0.068273658 Eh/bohr
Maximum allowed component of the step   ....  0.300
Current trust radius                    ....  0.300
Evaluating the initial hessian          ....  (Almloef) done
Projecting the Hessian                  .... done
Forming the augmented Hessian           .... done
Diagonalizing the augmented Hessian     .... done
Last element of RFO vector              ....  0.941851631
Lowest eigenvalues of augmented Hessian:
 -0.010957136  0.010354852  0.011979475  0.012971549  0.017245730
Length of the computed step             ....  0.356774902
Warning: the length of the step is outside the trust region - taking restricted step instead
The input lambda is                     ....     0.009338
   iter:   5  x=   -0.001802  g=  125.820854 f(x)=     0.519500
   iter:  10  x=   -0.016685  g=    4.716974 f(x)=     0.000173
The output lambda is                    ....    -0.016685 (13 iterations)
The final length of the internal step   ....  0.300000000
Converting the step to Cartesian space:
 Initial RMS(Int)=    0.0377964473
Transforming coordinates:
 Iter   0:  RMS(Cart)=    0.1529975552 RMS(Int)=    1.1148006948
 Iter   5:  RMS(Cart)=    0.0000006851 RMS(Int)=    0.0000004998
done
Storing new coordinates                 .... done

                                .--------------------.
          ----------------------|Geometry convergence|-------------------------
          Item                value                   Tolerance       Converged
          ---------------------------------------------------------------------
          RMS gradient        0.0088312593            0.0001000000      NO
          MAX gradient        0.0358082052            0.0003000000      NO
          RMS step            0.0377964473            0.0020000000      NO
          MAX step            0.1201630141            0.0040000000      NO
          -------------------------------------------------------------------------
          ........................................................
          Max(Bonds)      0.0185      Max(Angles)    2.71
          Max(Dihed)        6.88      Max(Improp)    0.00
          ---------------------------------------------------------------------

The optimization has not yet converged - more geometry cycles are needed


    ---------------------------------------------------------------------------
                         Redundant Internal Coordinates
                            (Angstroem and degrees)

        Definition                    Value    dE/dq     Step     New-Value
    ----------------------------------------------------------------------------
     1. B(C   1,C   0)                1.5073 -0.012692  0.0159    1.5231   
     2. B(O   4,C   0)                1.3355 -0.020661  0.0156    1.3511   
     3. B(C   5,C   1)                1.5306 -0.011420  0.0155    1.5462   
     4. B(H   6,C   1)                1.0903 -0.005641  0.0079    1.0982   
     5. B(H   7,C   1)                1.0907 -0.005202  0.0073    1.0980   
     6. B(C   8,C   5)                1.5314 -0.013583  0.0185    1.5499   
     7. B(C   8,O   2)                1.2000 -0.032954  0.0153    1.2153   
     8. B(O   9,C   0)                1.2019 -0.035808  0.0167    1.2186   
     9. B(N  10,C   5)                1.4496 -0.006764  0.0077    1.4573   
    10. B(O  11,C   8)                1.3377 -0.022992  0.0175    1.3553   
    11. B(O  11,H   3)                0.9706 -0.003046  0.0031    0.9737   
    12. B(H  12,N  10)                1.0155 -0.002890  0.0035    1.0190   
    13. B(H  13,O   4)                0.9706 -0.003006  0.0031    0.9736   
    14. B(H  14,C   5)                1.0988 -0.002667  0.0039    1.1026   
    15. B(H  15,N  10)                1.0164 -0.003112  0.0037    1.0201   
    16. A(C   1,C   0,O   9)          125.45 -0.004350    0.58    126.03   
    17. A(C   1,C   0,O   4)          111.84  0.006645   -0.86    110.98   
    18. A(O   4,C   0,O   9)          122.71 -0.002313    0.30    123.01   
    19. A(C   5,C   1,H   7)          110.70  0.002918   -0.20    110.50   
    20. A(C   0,C   1,H   6)          108.85  0.006289   -1.11    107.73   
    21. A(H   6,C   1,H   7)          108.52  0.000305   -0.93    107.59   
    22. A(C   5,C   1,H   6)          109.66  0.003533   -0.68    108.97   
    23. A(C   0,C   1,C   5)          111.20 -0.015261    2.71    113.91   
    24. A(C   0,C   1,H   7)          107.85  0.002586    0.13    107.97   
    25. A(C   0,O   4,H  13)          110.62  0.010987   -1.61    109.01   
    26. A(C   8,C   5,N  10)          112.19  0.000493    0.65    112.84   
    27. A(C   1,C   5,N  10)          110.33  0.004517   -0.29    110.04   
    28. A(N  10,C   5,H  14)          107.81 -0.000964   -0.61    107.20   
    29. A(C   8,C   5,H  14)          106.60  0.002972   -1.08    105.52   
    30. A(C   1,C   5,H  14)          108.66  0.003207   -1.42    107.24   
    31. A(C   1,C   5,C   8)          111.07 -0.009908    2.54    113.61   
    32. A(C   5,C   8,O  11)          112.93  0.003311   -0.50    112.43   
    33. A(O   2,C   8,O  11)          123.19 -0.002348    0.23    123.42   
    34. A(O   2,C   8,C   5)          123.79 -0.000842    0.07    123.86   
    35. A(H  12,N  10,H  15)          106.33  0.000372   -0.74    105.59   
    36. A(C   5,N  10,H  15)          108.96  0.003098   -0.78    108.17   
    37. A(C   5,N  10,H  12)          109.34  0.001964   -0.60    108.75   
    38. A(H   3,O  11,C   8)          109.87  0.009452   -1.39    108.48   
    39. D(H   6,C   1,C   0,O   9)    128.48  0.000914   -2.94    125.54   
    40. D(C   5,C   1,C   0,O   9)      7.57  0.002006   -3.06      4.51   
    41. D(H   6,C   1,C   0,O   4)    -51.99 -0.001534   -0.46    -52.45   
    42. D(C   5,C   1,C   0,O   4)   -172.90 -0.000442   -0.58   -173.48   
    43. D(H   7,C   1,C   0,O   4)     65.55  0.003660   -2.09     63.46   
    44. D(H  13,O   4,C   0,O   9)      0.09 -0.001283    1.30      1.39   
    45. D(H  13,O   4,C   0,C   1)   -179.46  0.001100   -1.10   -180.56   
    46. D(N  10,C   5,C   1,H   7)   -166.84 -0.002287   -2.61   -169.45   
    47. D(N  10,C   5,C   1,H   6)    -47.14  0.002176   -4.32    -51.45   
    48. D(N  10,C   5,C   1,C   0)     73.30  0.002569   -4.42     68.87   
    49. D(C   8,C   5,C   1,H   7)     68.11  0.000937   -5.07     63.04   
    50. D(C   8,C   5,C   1,H   6)   -172.19  0.005400   -6.78   -178.97   
    51. D(C   8,C   5,C   1,C   0)    -51.76  0.005793   -6.88    -58.64   
    52. D(O   2,C   8,C   5,N  10)     18.99  0.000268   -0.51     18.48   
    53. D(O   2,C   8,C   5,C   1)    142.99 -0.000904    1.49    144.49   
    54. D(O  11,C   8,C   5,N  10)   -164.34  0.002467   -4.36   -168.70   
    55. D(O  11,C   8,C   5,C   1)    -40.34  0.001296   -2.36    -42.69   
    56. D(O   2,C   8,C   5,H  14)    -98.80 -0.000673    0.53    -98.27   
    57. D(H  15,N  10,C   5,C   1)    -62.44  0.007021   -3.25    -65.70   
    58. D(H  12,N  10,C   5,H  14)     63.22 -0.002089    0.63     63.85   
    59. D(H  12,N  10,C   5,C   8)    -53.86 -0.005398    1.96    -51.90   
    60. D(H  15,N  10,C   5,C   8)     61.97 -0.002147    0.31     62.28   
    61. D(H  12,N  10,C   5,C   1)   -178.27  0.003770   -1.61   -179.88   
    62. D(H   3,O  11,C   8,C   5)    179.47 -0.001477    2.32    181.78   
    63. D(H   3,O  11,C   8,O   2)     -3.84  0.000764   -1.51     -5.35   
    ----------------------------------------------------------------------------

Geometry step timings:
Preparation and reading OPT file:      0.000 s ( 1.107 %)
Internal coordinates            :      0.000 s ( 1.015 %)
B/P matrices and projection     :      0.000 s (31.089 %)
Hessian update/contruction      :      0.000 s ( 8.395 %)
Making the step                 :      0.000 s (38.100 %)
Converting the step to Cartesian:      0.000 s ( 3.690 %)
Storing new data                :      0.000 s ( 3.598 %)
Checking convergence            :      0.000 s ( 1.384 %)
Final printing                  :      0.000 s (11.624 %)
Total time                      :      0.001 s

Time for energy+gradient        :      9.006 s
Time for complete geometry iter :      9.018 s

         *************************************************************
         *                GEOMETRY OPTIMIZATION CYCLE   2            *
         *************************************************************
---------------------------------
CARTESIAN COORDINATES (ANGSTROEM)
---------------------------------
  C     -4.373796    1.356831    1.359233
  C     -3.985665    1.316794   -0.113083
  O     -1.923771    4.318030    0.326690
  H     -4.060201    5.105526   -0.195284
  O     -5.393383    0.507597    1.613623
  C     -2.722790    2.142468   -0.450721
  H     -3.809288    0.267250   -0.384172
  H     -4.844090    1.670926   -0.699089
  C     -2.846886    3.643608   -0.085536
  O     -3.833687    2.023413    2.224697
  N     -1.545504    1.514077    0.134744
  O     -4.054351    4.158661   -0.422369
  H     -0.726201    2.073779   -0.097142
  H     -5.611940    0.549299    2.561488
  H     -2.596941    2.114332   -1.545778
  H     -1.631316    1.561730    1.150158

----------------------------
CARTESIAN COORDINATES (A.U.)
----------------------------
  NO LB      ZA    FRAG     MASS         X           Y           Z
   0 C     6.0000    0    12.011   -8.265277    2.564039    2.568578
   1 C     6.0000    0    12.011   -7.531815    2.488381   -0.213696
   2 O     8.0000    0    15.999   -3.635400    8.159895    0.617355
   3 H     1.0000    0     1.008   -7.672669    9.648046   -0.369033
   4 O     8.0000    0    15.999  -10.192016    0.959220    3.049306
   5 C     6.0000    0    12.011   -5.145327    4.048677   -0.851740
   6 H     1.0000    0     1.008   -7.198511    0.505030   -0.725979
   7 H     1.0000    0     1.008   -9.154003    3.157593   -1.321087
   8 C     6.0000    0    12.011   -5.379835    6.885421   -0.161639
   9 O     8.0000    0    15.999   -7.244619    3.823696    4.204068
  10 N     7.0000    0    14.007   -2.920579    2.861191    0.254628
  11 O     8.0000    0    15.999   -7.661614    7.858731   -0.798162
  12 H     1.0000    0     1.008   -1.372321    3.918875   -0.183572
  13 H     1.0000    0     1.008  -10.605031    1.038024    4.840511
  14 H     1.0000    0     1.008   -4.907507    3.995509   -2.921098
  15 H     1.0000    0     1.008   -3.082740    2.951242    2.173484

--------------------------------
INTERNAL COORDINATES (ANGSTROEM)
--------------------------------
 C      0   0   0     0.000000000000     0.00000000     0.00000000
 C      1   0   0     1.523142366321     0.00000000     0.00000000
 O      2   1   0     3.667727312445    90.33477919     0.00000000
 H      3   2   1     2.336009680466    74.62817091   271.44848189
 O      1   2   3     1.351098977185   110.96377915   168.15273493
 C      2   1   3     1.546153243297   113.90269290    18.37632164
 H      2   1   3     1.098244231175   107.73683212   139.39271466
 H      2   1   3     1.098046312878   107.94962817   255.30156661
 C      3   2   1     1.215284615833    22.80993050   246.54634404
 O      1   2   3     1.218637587889   126.01024499   346.13818143
 N      6   2   1     1.457273231846   109.98961021    68.87369348
 O      4   3   2     0.973732382971    73.66851526   345.25036403
 H     11   6   2     1.018967602333   108.74068777   180.13063292
 H      5   1   2     0.973629225087   109.01278494   179.44477569
 H      6   2   1     1.102624071225   107.24584521   185.13647693
 H     11   6   2     1.020147709635   108.16722442   294.31843301

---------------------------
INTERNAL COORDINATES (A.U.)
---------------------------
 C      0   0   0     0.000000000000     0.00000000     0.00000000
 C      1   0   0     2.878321935319     0.00000000     0.00000000
 O      2   1   0     6.931000154424    90.33477919     0.00000000
 H      3   2   1     4.414418542270    74.62817091   271.44848189
 O      1   2   3     2.553207046701   110.96377915   168.15273493
 C      2   1   3     2.921806190905   113.90269290    18.37632164
 H      2   1   3     2.075380825080   107.73683212   139.39271466
 H      2   1   3     2.075006813701   107.94962817   255.30156661
 C      3   2   1     2.296555098691    22.80993050   246.54634404
 O      1   2   3     2.302891297613   126.01024499   346.13818143
 N      6   2   1     2.753847310484   109.98961021    68.87369348
 O      4   3   2     1.840087531546    73.66851526   345.25036403
 H     11   6   2     1.925569707747   108.74068777   180.13063292
 H      5   1   2     1.839892591396   109.01278494   179.44477569
 H      6   2   1     2.083657523284   107.24584521   185.13647693
 H     11   6   2     1.927799787356   108.16722442   294.31843301

------------------------------------------------------------------------------
                   ___                                                        
                  /   \      - P O W E R E D   B Y -                         
                 /     \                                                     
                 |  |  |   _    _      __       _____    __    __             
                 |  |  |  | |  | |    /  \     |  _  \  |  |  /  |          
                  \  \/   | |  | |   /    \    | | | |  |  | /  /          
                 / \  \   | |__| |  /  /\  \   | |_| |  |  |/  /          
                |  |  |   |  __  | /  /__\  \  |    /   |      \           
                |  |  |   | |  | | |   __   |  |    \   |  |\   \          
                \     /   | |  | | |  |  |  |  | |\  \  |  | \   \       
                 \___/    |_|  |_| |__|  |__|  |_| \__\ |__|  \__/        
                                                                              
                      - O R C A' S   B I G   F R I E N D -                    
                                      &                                       
                       - I N T E G R A L  F E E D E R -                       
                                                                              
 v1 FN, 2020, v2 2021, v3 2022-2024                                           
------------------------------------------------------------------------------


----------------------
SHARK INTEGRAL PACKAGE
----------------------

Number of atoms                             ...     16
Number of basis functions                   ...    161
Number of shells                            ...     75
Maximum angular momentum                    ...      2
Integral batch strategy                     ... SHARK/LIBINT Hybrid
RI-J (if used) integral strategy            ... SPLIT-RIJ (Revised 2003 algorithm where possible)
Printlevel                                  ...      1
Contraction scheme used                     ... SEGMENTED contraction
Prescreening option                         ... SCHWARTZ
   Thresh                                   ... 2.500e-11
   Tcut                                     ... 2.500e-12
   Tpresel                                  ... 2.500e-12 
Coulomb Range Separation                    ... NOT USED
Exchange Range Separation                   ... NOT USED
Multipole approximations                    ... NOT USED
Finite Nucleus Model                        ... NOT USED
CABS basis                                  ... NOT available
Auxiliary Coulomb fitting basis             ... AVAILABLE
   # of basis functions in Aux-J            ...    518
   # of shells in Aux-J                     ...    170
   Maximum angular momentum in Aux-J        ...      4
Auxiliary J/K fitting basis                 ... NOT available
Auxiliary Correlation fitting basis         ... NOT available
Auxiliary 'external' fitting basis          ... NOT available

Checking pre-screening integrals            ... done (  0.0 sec) Dimension = 75
   => SHARK Basis and OBASIS are compatible. Storing Pre-screening
Shell pair information
Shell pair cut-off parameter TPreSel        ...   2.5e-12
Total number of shell pairs                 ...      2850
Shell pairs after pre-screening             ...      2617
Total number of primitive shell pairs       ...     14745
Primitive shell pairs kept                  ...      8933
          la=0 lb=0:    776 shell pairs
          la=1 lb=0:    938 shell pairs
          la=1 lb=1:    305 shell pairs
          la=2 lb=0:    340 shell pairs
          la=2 lb=1:    214 shell pairs
          la=2 lb=2:     44 shell pairs

[...]

  1 C s       :     3.249303  s :     3.249303
      pz      :     0.951418  p :     2.983184
      px      :     0.986978
      py      :     1.044788
      dz2     :     0.008956  d :     0.032901
      dxz     :     0.007470
      dyz     :     0.003400
      dx2y2   :     0.007645
      dxy     :     0.005429

  2 O s       :     3.871427  s :     3.871427
      pz      :     1.407445  p :     4.521246
      px      :     1.509916
      py      :     1.603885
      dz2     :     0.004182  d :     0.027638
      dxz     :     0.006093
      dyz     :     0.003844
      dx2y2   :     0.006424
      dxy     :     0.007095

  3 H s       :     0.641024  s :     0.641024
      pz      :     0.009738  p :     0.037442
      px      :     0.007241
      py      :     0.020462

  4 O s       :     3.844900  s :     3.844900
      pz      :     1.407306  p :     4.593340
      px      :     1.504540
      py      :     1.681494
      dz2     :     0.008324  d :     0.023404
      dxz     :     0.002652
      dyz     :     0.001838
      dx2y2   :     0.004987
      dxy     :     0.005603

  5 C s       :     3.210965  s :     3.210965
      pz      :     1.025998  p :     2.792507
      px      :     0.876425
      py      :     0.890084
      dz2     :     0.014649  d :     0.055869
      dxz     :     0.007660
      dyz     :     0.004611
      dx2y2   :     0.014960
      dxy     :     0.013988

  6 H s       :     0.825936  s :     0.825936
      pz      :     0.002705  p :     0.011584
      px      :     0.002575
      py      :     0.006305

  7 H s       :     0.829214  s :     0.829214
      pz      :     0.003639  p :     0.011659
      px      :     0.004953
      py      :     0.003067

  8 C s       :     2.997473  s :     2.997473
      pz      :     0.781552  p :     2.361405
      px      :     0.693841
      py      :     0.886012
      dz2     :     0.010863  d :     0.117383
      dxz     :     0.021753
      dyz     :     0.011527
      dx2y2   :     0.043830
      dxy     :     0.029410

  9 O s       :     3.881045  s :     3.881045
      pz      :     1.531475  p :     4.516211
      px      :     1.550455
      py      :     1.434281
      dz2     :     0.006183  d :     0.027291
      dxz     :     0.006383
      dyz     :     0.006341
      dx2y2   :     0.004856
      dxy     :     0.003527

 10 N s       :     3.615398  s :     3.615398
      pz      :     1.200308  p :     3.917934
      px      :     1.090812
      py      :     1.626815
      dz2     :     0.010583  d :     0.029220
      dxz     :     0.002107
      dyz     :     0.003079
      dx2y2   :     0.002634
      dxy     :     0.010818

 11 O s       :     3.843297  s :     3.843297
      pz      :     1.756691  p :     4.605951
      px      :     1.494616
      py      :     1.354644
      dz2     :     0.003139  d :     0.022879
      dxz     :     0.004998
      dyz     :     0.001558
      dx2y2   :     0.009440
      dxy     :     0.003743

 12 H s       :     0.726014  s :     0.726014
      pz      :     0.005443  p :     0.023656
      px      :     0.009111
      py      :     0.009102

 13 H s       :     0.639566  s :     0.639566
      pz      :     0.020869  p :     0.037497
      px      :     0.008039
      py      :     0.008589

 14 H s       :     0.849285  s :     0.849285
      pz      :     0.006532  p :     0.011026
      px      :     0.001978
      py      :     0.002516

 15 H s       :     0.718213  s :     0.718213
      pz      :     0.012017  p :     0.023957
      px      :     0.004726
      py      :     0.007214



                     *******************************
                     * LOEWDIN POPULATION ANALYSIS *
                     *******************************

----------------------
LOEWDIN ATOMIC CHARGES
----------------------
   0 C :    0.147688
   1 C :   -0.148650
   2 O :   -0.221740
   3 H :    0.184772
   4 O :   -0.150292
   5 C :   -0.044399
   6 H :    0.105222
   7 H :    0.102808
   8 C :    0.127471
   9 O :   -0.228297
  10 N :   -0.255138
  11 O :   -0.163699
  12 H :    0.132283
  13 H :    0.186262
  14 H :    0.093600
  15 H :    0.132108

-------------------------------
LOEWDIN REDUCED ORBITAL CHARGES
-------------------------------
  0 C s       :     2.859938  s :     2.859938
      pz      :     1.018642  p :     2.712100
      px      :     0.862100
      py      :     0.831359
      dz2     :     0.084534  d :     0.280274
      dxz     :     0.051953
      dyz     :     0.038801
      dx2y2   :     0.047321
      dxy     :     0.057665

  1 C s       :     2.915286  s :     2.915286
      pz      :     1.033028  p :     3.158613
      px      :     1.048943
      py      :     1.076642
      dz2     :     0.022980  d :     0.074751
      dxz     :     0.016367
      dyz     :     0.007204
      dx2y2   :     0.014973
      dxy     :     0.013227

  2 O s       :     3.566647  s :     3.566647
      pz      :     1.407901  p :     4.599070
      px      :     1.559136
      py      :     1.632033
      dz2     :     0.007298  d :     0.056023
      dxz     :     0.011148
      dyz     :     0.007126
      dx2y2   :     0.012311
      dxy     :     0.018139

  3 H s       :     0.701088  s :     0.701088
      pz      :     0.028020  p :     0.114140
      px      :     0.019967
      py      :     0.066152

  4 O s       :     3.494588  s :     3.494588
      pz      :     1.413690  p :     4.607227
      px      :     1.523019
      py      :     1.670518
      dz2     :     0.017179  d :     0.048477
      dxz     :     0.006838
      dyz     :     0.003006
      dx2y2   :     0.008558
      dxy     :     0.012896

  5 C s       :     2.888839  s :     2.888839
      pz      :     1.053576  p :     3.030140
      px      :     0.976215
      py      :     1.000349
      dz2     :     0.031219  d :     0.125420
      dxz     :     0.016718
      dyz     :     0.009927
      dx2y2   :     0.034996
      dxy     :     0.032560

  6 H s       :     0.854090  s :     0.854090
      pz      :     0.008379  p :     0.040688
      px      :     0.007369
      py      :     0.024940

  7 H s       :     0.856336  s :     0.856336
      pz      :     0.012696  p :     0.040856
      px      :     0.019034
      py      :     0.009126

  8 C s       :     2.874256  s :     2.874256
      pz      :     0.810647  p :     2.720304
      px      :     0.908108
      py      :     1.001549
      dz2     :     0.024502  d :     0.277970
      dxz     :     0.049858
      dyz     :     0.024339
      dx2y2   :     0.109149
      dxy     :     0.070121

  9 O s       :     3.569650  s :     3.569650
      pz      :     1.585930  p :     4.603210
      px      :     1.566835
      py      :     1.450446
      dz2     :     0.012244  d :     0.055436
      dxz     :     0.014219
      dyz     :     0.013982
      dx2y2   :     0.006887
      dxy     :     0.008104

 10 N s       :     3.219232  s :     3.219232
      pz      :     1.223923  p :     3.978987
      px      :     1.142040
      py      :     1.613024
      dz2     :     0.020156  d :     0.056919
      dxz     :     0.007542
      dyz     :     0.004128
      dx2y2   :     0.005683
      dxy     :     0.019410

 11 O s       :     3.496931  s :     3.496931
      pz      :     1.727169  p :     4.618595
      px      :     1.527196
      py      :     1.364231
      dz2     :     0.006601  d :     0.048172
      dxz     :     0.007845
      dyz     :     0.002904
      dx2y2   :     0.020587
      dxy     :     0.010235

 12 H s       :     0.789798  s :     0.789798
      pz      :     0.014516  p :     0.077919
      px      :     0.032163
      py      :     0.031239

 13 H s       :     0.699956  s :     0.699956
      pz      :     0.067544  p :     0.113781
      px      :     0.022133
      py      :     0.024105

 14 H s       :     0.868041  s :     0.868041
      pz      :     0.025394  p :     0.038358
      px      :     0.006198
      py      :     0.006767

 15 H s       :     0.788576  s :     0.788576
      pz      :     0.045858  p :     0.079317
      px      :     0.011991
      py      :     0.021468



                      *****************************
                      * MAYER POPULATION ANALYSIS *
                      *****************************

  NA   - Mulliken gross atomic population
  ZA   - Total nuclear charge
  QA   - Mulliken gross atomic charge
  VA   - Mayer's total valence
  BVA  - Mayer's bonded valence
  FA   - Mayer's free valence

  ATOM       NA         ZA         QA         VA         BVA        FA
  0 C      5.4718     6.0000     0.5282     3.9486     3.9486    -0.0000
  1 C      6.2654     6.0000    -0.2654     3.8037     3.8037    -0.0000
  2 O      8.4203     8.0000    -0.4203     2.1156     2.1156    -0.0000
  3 H      0.6785     1.0000     0.3215     0.9159     0.9159    -0.0000
  4 O      8.4616     8.0000    -0.4616     2.0429     2.0429     0.0000
  5 C      6.0593     6.0000    -0.0593     3.8816     3.8816    -0.0000
  6 H      0.8375     1.0000     0.1625     0.9499     0.9499    -0.0000
  7 H      0.8409     1.0000     0.1591     0.9525     0.9525    -0.0000
  8 C      5.4763     6.0000     0.5237     3.9192     3.9192    -0.0000
  9 O      8.4245     8.0000    -0.4245     2.1005     2.1005    -0.0000
 10 N      7.5626     7.0000    -0.5626     2.8908     2.8908    -0.0000
 11 O      8.4721     8.0000    -0.4721     2.0168     2.0168    -0.0000
 12 H      0.7497     1.0000     0.2503     0.9267     0.9267     0.0000
 13 H      0.6771     1.0000     0.3229     0.9138     0.9138     0.0000
 14 H      0.8603     1.0000     0.1397     0.9437     0.9437    -0.0000
 15 H      0.7422     1.0000     0.2578     0.9308     0.9308    -0.0000

  Mayer bond orders larger than 0.100000
B(  0-C ,  1-C ) :   0.9553 B(  0-C ,  4-O ) :   1.0873 B(  0-C ,  9-O ) :   1.8694 
B(  1-C ,  5-C ) :   0.9662 B(  1-C ,  6-H ) :   0.9209 B(  1-C ,  7-H ) :   0.9217 
B(  2-O ,  8-C ) :   1.9138 B(  3-H , 11-O ) :   0.8510 B(  4-O , 13-H ) :   0.8512 
B(  5-C ,  8-C ) :   0.8916 B(  5-C , 10-N ) :   1.0620 B(  5-C , 14-H ) :   0.9204 
B(  8-C , 11-O ) :   1.0530 B( 10-N , 12-H ) :   0.8981 B( 10-N , 15-H ) :   0.8882 


-------
TIMINGS
-------

Total SCF time: 0 days 0 hours 0 min 2 sec 

Total time                  ....       2.457 sec
Sum of individual times     ....       2.109 sec  ( 85.8%)

SCF preparation             ....       0.028 sec  (  1.1%)
Fock matrix formation       ....       2.055 sec  ( 83.6%)
  Startup                   ....       0.000 sec  (  0.0% of F)
  Split-RI-J                ....       0.720 sec  ( 35.0% of F)
  XC integration            ....       1.629 sec  ( 79.3% of F)
    Basis function eval.    ....       0.596 sec  ( 36.6% of XC)
    Density eval.           ....       0.353 sec  ( 21.7% of XC)
    XC-Functional eval.     ....       0.329 sec  ( 20.2% of XC)
    XC-Potential eval.      ....       0.307 sec  ( 18.8% of XC)
Diagonalization             ....       0.000 sec  (  0.0%)
Density matrix formation    ....       0.002 sec  (  0.1%)
Total Energy calculation    ....       0.000 sec  (  0.0%)
Population analysis         ....       0.010 sec  (  0.4%)
Orbital Transformation      ....       0.002 sec  (  0.1%)
Orbital Orthonormalization  ....       0.000 sec  (  0.0%)
DIIS solution               ....       0.002 sec  (  0.1%)
SOSCF solution              ....       0.009 sec  (  0.4%)
Finished LeanSCF after   2.5 sec

Maximum memory used throughout the entire LEANSCF-calculation: 18.0 MB



-------------------------------------------------------------------------------
                          DFT DISPERSION CORRECTION                            
-------------------------------------------------------------------------------
Active option DFTDOPT                   ...         2   
Final C6-coefficient scaling factor     ...     1.250
Final VDW-radii scaling factor          ...     1.100
Damping factor alpha                    ...    20.000
-------------------------   ----------------
Dispersion correction           -0.020069658
-------------------------   ----------------


-------------------------   --------------------
FINAL SINGLE POINT ENERGY      -512.002187476031
-------------------------   --------------------

                                *** OPTIMIZATION RUN DONE ***


------------------------------------------------------------------------------
                              ORCA PROPERTY CALCULATIONS
------------------------------------------------------------------------------

GBWName                                 ... 0.gbw
Number of atoms                         ...     16
Number of basis functions               ...    161
Max core memory                         ...   4096 MB

Electric properties:
Dipole moment                           ... YES
Quadrupole moment                       ...  NO
Static polarizability (Dipole/Dipole)   ...  NO
Static polarizability (Dipole/Quad.)    ...  NO
Static polarizability (Quad./Quad.)     ...  NO
Static polarizability (Velocity)        ...  NO
Static hyperpolarizability              ...  NO

Atomic electric properties:
Dipole moment                           ...  NO
Quadrupole moment                       ...  NO
Static polarizability                   ...  NO

Choice of electric origin               ... Center of mass
Position of electric origin             ...    -6.472638     4.418604     1.007769

General magnetic properties:
Magnetizability                         ...  NO

EPR properties:
g-Tensor (aka g-matrix)                 ...  NO
Zero-Field splitting spin-orbit         ...  NO
Zero-field splitting spin-spin          ...  NO
Hyperfine couplings                     ...  NO (   0 nuclei)
Quadrupole couplings                    ...  NO (   0 nuclei)
Contact density                         ...  NO (   0 nuclei)

NMR properties:
Chemical shifts                         ...  NO (   0 nuclei)
Spin-rotation constants                 ...  NO (   0 nuclei)
Spin-spin couplings                     ...  NO (   0 nuclei,    0 pairs)

Choice of magnetic origin               ... GIAO
Position of magnetic origin             ...     0.000000     0.000000     0.000000

Properties with geometric perturbations:
SCF Hessian                             ...  NO
IR spectrum                             ...  NO
VCD spectrum                            ...  NO
X-ray spectroscopy properties:
SCF XES/XAS/RIXS spectra                ...  NO

SCF SOC stabilization energy            ...  NO
Diagonal Born-Oppenheimer correction    ...  NO

-------------
DIPOLE MOMENT
-------------

Method             : SCF
Type of density    : Electron Density
Multiplicity       :   1
Irrep              :   0
Energy             :  -511.9821178184213863 Eh
Basis              : AO
                                X                 Y                 Z
Electronic contribution:     -1.531944027       2.646145125       2.459524696
Nuclear contribution   :      0.637468838      -2.728629845      -2.723435883
                        -----------------------------------------
Total Dipole Moment    :     -0.894475189      -0.082484720      -0.263911187
                        -----------------------------------------
Magnitude (a.u.)       :      0.936236459
Magnitude (Debye)      :      2.379723959



--------------------
Rotational spectrum 
--------------------
 
Rotational constants in cm-1:             0.083638             0.039113             0.034710 
Rotational constants in MHz :          2507.392829          1172.590601          1040.584659 

Dipole components along the rotational axes: 
x,y,z [a.u.] :     0.484349    -0.594736     0.536875 
x,y,z [Debye]:     1.231117    -1.511698     1.364627 

 

Dipole moment calculation done in   0.0 sec 

Maximum memory used throughout the entire PROP-calculation: 10.3 MB

--------------------------------
SUGGESTED CITATIONS FOR THIS RUN
--------------------------------

Below you find a list of papers that are relevant to this ORCA run
We neither can nor want to force you to cite these papers, but we appreciate if you do
You receive ORCA, which is the product of decades of hard work by many enthusiastic individuals, for free
The only thing we kindly ask in return is that you cite our papers,
We deeply appreciate it, if you show your appreciation for ORCA by not just citing the generic ORCA reference.

Please note that relegating all ORCA citations to the supporting information does *not* help us.
SI sections are not indexed - citations you put there will not count into any citation statistics
But we need these citations in order to attract the funding resources that allow us to do what we are doing

Therefore, if you are a happy ORCA user, please consider citing a few of the papers listed below in the main body of your paper

In addition to the list printed below, the program has created the file 0.bibtex that contains the list in bibtex format
You can import this file easily into all common literature databanks and citation aid programs


List of essential papers. We consider these as the minimum necessary citations

  1. Neese, F.
     Software update: the ORCA program system, version 6.0
     WIRES Comput. Molec. Sci. 2025 15(1), e70019
     doi.org/10.1002/wcms.7019

List of papers to cite with high priority. The work reported in these papers was absolutely
necessary for this run to complete.
Our perspective: the developers of density functionals and basis sets usually get cited in chemistry papers
Good! But without the algorithms to do something with them, the functionals or basis sets would not do anything.
Hence, in our opinion, the algorithm design and method developments papers are equally worthy of getting cited

  1. Neese, F.
     An improvement of the resolution of the identity approximation for the formation of the Coulomb matrix
     J. Comp. Chem. 2003 24(14), 1740-1747
     doi.org/10.1002/jcc.10318
  2. Grimme, S.
     Semiempirical GGA-type density functional constructed with a long-range dispersion correction
     J.Comput.Chem. 2006 27(15), 1787-1799
     doi.org/10.1002/jcc.20495
  3. Neese, F.
     The SHARK Integral Generation and Digestion System
     J. Comp. Chem. 2022 44(3), 381
     doi.org/10.1002/jcc.26942

List of suggested additional citations. These are papers that are important in the 'surrounding' of 
of this run, or papers that preceded the highly important papers. If you like your results we are grateful for a citation.

  1. Neese, F.
     The ORCA program system
     WIRES Comput. Molec. Sci. 2012 2(1), 73-78
     doi.org/10.1002/wcms.81
  2. Neese, F.
     Software update: the ORCA program system, version 4.0
     WIRES Comput. Molec. Sci. 2018 8(1), 1-6
     doi.org/10.1002/wcms.1327
  3. Neese, F.; Wennmohs, F.; Becker, U.; Riplinger, C.
     The ORCA quantum chemistry program package
     J. Chem. Phys. 2020 152(22), 224108
     doi.org/10.1063/5.0004608
  4. Neese, F.
     Software update: The ORCA program system—Version 5.0
     WIRES Comput. Molec. Sci. 2022 12(1), e1606
     doi.org/10.1002/wcms.1606

List of optional additional citations

  1. Neese, F.
     Approximate second-order SCF convergence for spin unrestricted wavefunctions
     Chem. Phys. Lett. 2000 325(1-3), 93-98
     doi.org/10.1016/s0009-2614(00)00662-x

Timings for individual modules:

Sum of individual times          ...       83.370 sec (=   1.389 min)
Startup calculation              ...        4.693 sec (=   0.078 min)   5.6 %
SCF iterations                   ...       49.353 sec (=   0.823 min)  59.2 %
Property calculations            ...        0.035 sec (=   0.001 min)   0.0 %
SCF Gradient evaluation          ...       29.273 sec (=   0.488 min)  35.1 %
Geometry relaxation              ...        0.015 sec (=   0.000 min)   0.0 %
                             ****ORCA TERMINATED NORMALLY****
TOTAL RUN TIME: 0 days 0 hours 1 minutes 23 seconds 651 msec
