
                                 *****************
                                 * O   R   C   A *
                                 *****************

                                            #,                                       
                                            ###                                      
                                            ####                                     
                                            #####                                    
                                            ######                                   
                                           ########,                                 
                                     ,,################,,,,,                         
                               ,,#################################,,                 
                          ,,##########################################,,             
                       ,#########################################, ''#####,          
                    ,#############################################,,   '####,        
                  ,##################################################,,,,####,       
                ,###########''''           ''''###############################       
              ,#####''   ,,,,##########,,,,          '''####'''          '####       
            ,##' ,,,,###########################,,,                        '##       
           ' ,,###''''                  '''############,,,                           
         ,,##''                                '''############,,,,        ,,,,,,###''
      ,#''                                            '''#######################'''  
     '                                                          ''''####''''         
             ,#######,   #######,   ,#######,      ##                                
            ,#'     '#,  ##    ##  ,#'     '#,    #''#        ,####,    ,#,          
            ##       ##  ##   ,#'  ##            #'  '#       #'       ,# #          
            ##       ##  #######   ##           ,######,      #####,      #          
            '#,     ,#'  ##    ##  '#,     ,#' ,#      #,     #,   #      #          
             '#######'   ##     ##  '#######'  #'      '#     '####' #    #          



                #########################################################
                #                        -***-                          #
                #          Department of theory and spectroscopy        #
                #                                                       #
                #                      Frank Neese                      #
                #                                                       #
                #     Directorship, Architecture, Infrastructure        #
                #                    SHARK, DRIVERS                     #
                #        Core code/Algorithms in most modules           #
                #                                                       #
                #        Max Planck Institute fuer Kohlenforschung      #
                #                Kaiser Wilhelm Platz 1                 #
                #                 D-45470 Muelheim/Ruhr                 #
                #                      Germany                          #
                #                                                       #
                #                  All rights reserved                  #
                #                        -***-                          #
                #########################################################


                         Program Version 6.1.0  -  RELEASE   -
                                (GIT: $679e74b$)
                          ($2025-06-10 18:02:51 +0200$)


 With contributions from (in alphabetic order):
[Max-Planck-Institut fuer Kohlenforschung]                               
  Daniel Aravena         : Magnetic Suceptibility                        
  Michael Atanasov       : Ab Initio Ligand Field Theory (pilot matlab implementation)
  Alexander A. Auer      : GIAO ZORA, VPT2 properties, NMR spectrum      
  Ute Becker             : All parallelization in ORCA, NUMFREQ, NUMCALC 
  Giovanni Bistoni       : ED, misc. LED, open-shell LED, HFLD           
  Dmytro Bykov           : pre 5.0 version of the SCF Hessian            
  Marcos Casanova-Páez   : Triplet and SCS-CIS(D). UHF-(DLPNO)-IP/EA/STEOM-CCSD. UHF-CVS-IP/STEOM-CCSD   
  Vijay G. Chilkuri      : MRCI spin determinant printing, contributions to CSF-ICE 
  Pauline Colinet        : FMM embedding                                 
  Dipayan Datta          : RHF DLPNO-CCSD density                        
  Achintya Kumar Dutta   : EOM-CC, STEOM-CC                              
  Nicolas Foglia         : Exact transition moments, OPA infrastructure, MCD improvements    
  Dmitry Ganyushin       : Spin-Orbit,Spin-Spin,Magnetic field MRCI      
  Miquel Garcia-Rates    : C-PCM and meta-GGA Hessian, CCSD/C-PCM, Gaussian charge scheme 
  Tiago L. C. Gouveia    : GS-ROHF, GS-ROCIS                             
  Yang Guo               : DLPNO-NEVPT2, F12-NEVPT2, CIM, IAO-localization        
  Andreas Hansen         : Spin unrestricted coupled pair/coupled cluster methods 
  Ingolf Harden          : AUTO-CI MPn and infrastructure                
  Benjamin Helmich-Paris : MC-RPA, TRAH-(SCF,CASSCF), AVAS, COSX integrals, SCF dyn. polar., MC-PDFT, srDFT 
  Lee Huntington         : MR-EOM, pCC                                   
  Robert Izsak           : Overlap fitted RIJCOSX, COSX-SCS-MP3, EOM     
  Riya Kayal             : Wick's Theorem for AUTO-CI, AUTO-CI UHF-CCSDT 
  Emily Kempfer          : AUTO-CI RHF CISDT and CCSDT, approximate NEVPT4
  Christian Kollmar      : KDIIS, OOCD, Brueckner-CCSD(T), CCSD density, CASPT2, CASPT2-K, improved NEVPT2 
  Axel Koslowski         : Symmetry handling                             
  Simone Kossmann        : meta-GGA functionals, TD-DFT gradient, OOMP2, (MP2 Hessian; deprecated post 5.0) 
  Lucas Lang             : DCDCAS, Hyperfine gauge corrections, ICE-SOC+SSC
  Marvin Lechner         : AUTO-CI (C++ implementation), FIC-MRCC        
  Spencer Leger          : CASSCF response                               
  Dagmar Lenk            : GEPOL surface, SMD, ORCA-2-JSON               
  Dimitrios Liakos       : Extrapolation schemes; Compound Job, Property file
  Dimitrios Manganas     : Further ROCIS development; embedding schemes. LFT, Crystal Embedding 
  Dimitrios Pantazis     : SARC Basis sets                               
  Anastasios Papadopoulos: AUTO-CI, single reference methods and gradients 
  Taras Petrenko         : pre 6.0 DFT Hessian and TD-DFT gradient,  ECA, NRVS 
  Petra Pikulova         : Analytic Raman intensities                    
  Peter Pinski           : DLPNO-MP2, DLPNO-MP2 Gradient                 
  Shashank Vittal Rao    : ES-AILFT, MagRelax                            
  Christoph Reimann      : Effective Core Potentials                     
  Marius Retegan         : Local ZFS, SOC                                
  Christoph Riplinger    : Optimizer, TS searches, QM/MM, DLPNO-CCSD(T), (RO)-DLPNO pert. Triples 
  Michael Roemelt        : Original ROCIS implementation, recursive CI coupling coefficients
  Masaaki Saitow         : Open-shell DLPNO-CCSD energy and density      
  Barbara Sandhoefer     : DKH picture change effects                    
  Yorick L. A. Schmerwitz: GMF and freeze-and-release deltaSCF, NEB S-IDPP initial path                    
  Kantharuban Sivalingam : CASSCF convergence/infrastructure, NEVPT2, NEVPT3, NEVPT4(SD), FIC-MRCI and CEPA variants
  Bernardo de Souza      : ESD, SOC TD-DFT                               
  Georgi L. Stoychev     : AutoAux, RI-MP2 NMR, DLPNO-MP2 response, X2C  
  Van Anh Tran           : RI-MP2 g-tensors                              
  Willem Van den Heuvel  : Paramagnetic NMR                              
  Zikuan Wang            : NOTCH, Electric field optimization            
  Frank Wennmohs         : Technical directorship and infrastructure     
  Hang Xu                : AUTO-CI-Response properties                   
                                                                         
[FACCTs GmbH]                                                            
  Markus Bursch, Nicolas Foglia, Miquel Garcia-Rates, Ingolf Harden, Hagen Neugebauer, Anastasios Papadopoulos, 
  Christoph Riplinger, Bernardo de Souza, Georgi L. Stoychev                                                    
                                                                 
  APM, various basis sets, CI-OPT, improved COSX, DLPNO-Multilevel,           
  DOCKER, DRACO, updates on ESD, Fragmentator, GOAT, IRC, LR-CPCM, L-BFGS, MBIS, meta-GGA TD-DFT gradient, ML-optimized integration grids, 
  MM, NACMEs, nearIR, NEB, NEB-TS, NL-DFT gradient (VV10), 2- and 3-layer-ONIOM, interface openCOSMO-RS, QMMM,   
  Crystal-QMMM, RESP, rigid body optimization, SF, symmetry and pop. for TD-DFT, various functionals, SOLVATOR                                   
                                                                         
[Other institutions]                                                     
  V. Asgeirsson          : NEB                                           
  Christoph Bannwarth    : sTDA-DFT, sTD-DFT, PBEh-3c, B97-3c, D3        
  Giovanni Bistoni       : ETS/NOCV, ADLD/ADEX, COVALED                  
  Martin Brehm           : Molecular dynamics                            
  Ronald Cardenas        : ETS/NOCV                                      
  Martina Colucci        : COVALED                                       
  Sebastian Ehlert       : rSCAN, r2SCAN, r2SCAN-3c, D4, dhf basis sets  
  Marvin Friede          : D4 for Fr, Ra, Ac-Lr                          
  Lars Goerigk           : TD-DFT with DH, B97 family of functionals     
  Stefan Grimme          : VdW corrections, initial TS optimization, DFT functionals, gCP, sTDA/sTD-DF 
  Waldemar Hujo          : DFT-NL                                        
  H. Jonsson             : NEB                                           
  Holger Kruse           : gCP                                           
  Marcel Mueller         : wB97X-3c, vDZP basis set                      
  Hagen Neugebauer       : wr2SCAN, Native XTB                           
  Gianluca Regni         : ADLD/ADEX                                     
  Tobias Risthaus        : pre 6.0 range-separated hybrid DFT and stability analysis
  Lukas Wittmann         : regularized MP2, r2SCAN double-hybrids, wr2SCAN        
                                                                         
We gratefully acknowledge several colleagues who have allowed us to      
interface, adapt or use parts of their codes:                            
  Ed Valeev, F. Pavosevic, A. Kumar             : LibInt (2-el integral package), F12 methods 
  Garnet Chan, S. Sharma, J. Yang, R. Olivares  : DMRG                   
  Ulf Ekstrom                                   : XCFun DFT Library      
  Mihaly Kallay                                 : mrcc  (arbitrary order and MRCC methods)
  Frank Weinhold                                : gennbo (NPA and NBO analysis)           
  Simon Mueller                                 : openCOSMO-RS                            
  Christopher J. Cramer and Donald G. Truhlar   : smd solvation model                     
  S Lehtola, MJT Oliveira, MAL Marques          : LibXC Library                           
  Liviu Ungur et al                             : ANISO software                          


 Your calculation uses the libint2 library for the computation of 2-el integrals
 For citations please refer to: http://libint.valeyev.net

 Your ORCA version has been built with support for libXC version: 7.0.0
 For citations please refer to: https://libxc.gitlab.io

 This ORCA versions uses:
   CBLAS   interface :  Fast vector & matrix operations
   LAPACKE interface :  Fast linear algebra routines
   SCALAPACK package :  Parallel linear algebra routines
   Shared memory     :  Shared parallel matrices
   BLAS/LAPACK       :  OpenBLAS 0.3.29  USE64BITINT DYNAMIC_ARCH NO_AFFINITY Haswell SINGLE_THREADED
        Core in use  :  Haswell
   Copyright (c) 2011-2014, The OpenBLAS Project


  ***********************************
  * Starting time: Wed Aug 13 12:04:31 2025
  * Host name:     CHEMLAB02
  * Process ID:    1531746
  * Working dir.:  /home/vivek/mm-project/vivek/B97-D/e/0
  ***********************************



***************************************
The coordinates will be read from file: /home/vivek/mm-project/vivek/xtb-goat/e/E_CONF/0.xyz
***************************************


Your calculation utilizes empirical dispersion correction


Warning: RI is on but no J-basis has been assigned. Assigning Def2/J (nothing to worry about!)
================================================================================

----- Orbital basis set information -----
Your calculation utilizes the basis: 6-31G**
   H-He, Li-Ne : W. J. Hehre, R. Ditchfield and J.A. Pople, J. Chem. Phys. 56, 2257 (1972).
                 Note: He and Ne are unpublished basis sets taken from the Gaussian program.
                 Note: Li and B from J. D. Dill and J. A. Pople, J. Chem. Phys. 62, 2921 (1975).
   Na - Ar     : M. M. Francl, W. J. Pietro, W. J. Hehre, J. S. Binkley, M. S. Gordon, 
                 D. J. DeFrees and J. A. Pople, J. Chem. Phys. 77, 3654 (1982).
   K - Zn      : V. A. Rassolov, J. A. Pople, M. A. Ratner, and T. L. Windus, J. Chem. Phys. 109, 1223 (1998).

----- AuxJ basis set information -----
Your calculation utilizes the auxiliary basis: def2/J
   H-Rn: F. Weigend, Phys. Chem. Chem. Phys. 8, 1057 (2006).
   Fr-Lr: K. Eichkorn, F. Weigend, O. Treutler, R. Ahlrichs; Theor. Chem. Acc. 97, 119 (1997).

================================================================================
                                        WARNINGS
                       Please study these warnings very carefully!
================================================================================


INFO   : The exchange functional is Grimme's B97(-D)
         As described in S. Grimme, J. Comput. Chem. 27, 1787 (2006).
         Note that this functional defaults to a pure GGA. 

INFO   : The correlation functional is Grimme's B97(-D)
         As described in S. Grimme, J. Comput. Chem. 27, 1787 (2006).

================================================================================
                                       INPUT FILE
================================================================================
NAME = 0.inp
|  1> ! B97-D 6-31G** 
|  2> 
|  3> * xyzfile 0 1 /home/vivek/mm-project/vivek/xtb-goat/e/E_CONF/0.xyz
|  4> 
|  5>                          ****END OF INPUT****
================================================================================

                       ****************************
                       * Single Point Calculation *
                       ****************************

---------------------------------
CARTESIAN COORDINATES (ANGSTROEM)
---------------------------------
  C     -2.511429   -0.405267   -0.190504
  C     -2.292722    0.805535   -1.065505
  H     -0.669821    3.061481    1.723971
  H     -1.986702    2.207653    1.292670
  O     -3.503657   -0.215706    0.680638
  C     -0.823975    1.237237   -1.070090
  H     -2.580455    0.534626   -2.083587
  H     -2.932878    1.616134   -0.721436
  C     -0.302756    1.623435    0.329102
  H     -0.204976    0.426161   -1.455578
  H     -0.720846    2.105841   -1.719875
  C     -0.196352    0.366582    1.191536
  O     -0.889820    0.149815    2.152273
  N     -1.141597    2.641082    0.930962
  H     -3.597118   -0.979549    1.272137
  O      0.756917   -0.458545    0.770131
  H      0.710122    2.021889    0.205009
  O     -1.882866   -1.429253   -0.251091
  H      0.741956   -1.289826    1.271134

----------------------------
CARTESIAN COORDINATES (A.U.)
----------------------------
  NO LB      ZA    FRAG     MASS         X           Y           Z
   0 C     6.0000    0    12.011   -4.745913   -0.765844   -0.360000
   1 C     6.0000    0    12.011   -4.332617    1.522240   -2.013513
   2 H     1.0000    0     1.008   -1.265777    5.785362    3.257833
   3 H     1.0000    0     1.008   -3.754323    4.171859    2.442792
   4 O     8.0000    0    15.999   -6.620952   -0.407625    1.286219
   5 C     6.0000    0    12.011   -1.557087    2.338040   -2.022178
   6 H     1.0000    0     1.008   -4.876354    1.010297   -3.937409
   7 H     1.0000    0     1.008   -5.542336    3.054050   -1.363316
   8 C     6.0000    0    12.011   -0.572126    3.067847    0.621913
   9 H     1.0000    0     1.008   -0.387349    0.805327   -2.750644
  10 H     1.0000    0     1.008   -1.362201    3.979462   -3.250093
  11 C     6.0000    0    12.011   -0.371052    0.692740    2.251677
  12 O     8.0000    0    15.999   -1.681516    0.283109    4.067207
  13 N     7.0000    0    14.007   -2.157305    4.990921    1.759264
  14 H     1.0000    0     1.008   -6.797569   -1.851080    2.403990
  15 O     8.0000    0    15.999    1.430365   -0.866524    1.455337
  16 H     1.0000    0     1.008    1.341936    3.820816    0.387411
  17 O     8.0000    0    15.999   -3.558101   -2.700897   -0.474493
  18 H     1.0000    0     1.008    1.402094   -2.437419    2.402095

--------------------------------
INTERNAL COORDINATES (ANGSTROEM)
--------------------------------
 C      0   0   0     0.000000000000     0.00000000     0.00000000
 C      1   0   0     1.509801756753     0.00000000     0.00000000
 H      2   1   0     3.937547704542    96.23492774     0.00000000
 H      3   2   1     1.627642722940    34.74066589   301.39155385
 O      1   2   3     1.333918298850   111.85572916    72.46884457
 C      2   1   3     1.530884460114   111.52230684    56.15646792
 H      2   1   3     1.092095697438   107.64795713   175.25817868
 H      2   1   3     1.088693545136   109.19431936   293.37104209
 C      6   2   1     1.542257174865   113.08762117   299.38261224
 H      6   2   1     1.090690062123   109.62424957    60.42079300
 H      6   2   1     1.089645505974   108.50454649   179.55731111
 C      9   6   2     1.528002591748   109.24582566    70.06669691
 O     12   9   6     1.204533955037   123.92561173   247.48228867
 N      3   2   1     1.013987580449    10.47195906   207.57761023
 H      5   1   2     0.970598952300   110.96400851   183.49990906
 O     12   9   6     1.329337672617   112.43106987    68.03250564
 H      9   6   2     1.095484642455   107.50478491   186.29133315
 O      1   2   3     1.203041635295   125.29095440   252.40710728
 H     16  12   9     0.970699073708   110.90934412   186.17030938

---------------------------
INTERNAL COORDINATES (A.U.)
---------------------------
 C      0   0   0     0.000000000000     0.00000000     0.00000000
 C      1   0   0     2.853111836776     0.00000000     0.00000000
 H      2   1   0     7.440886800835    96.23492774     0.00000000
 H      3   2   1     3.075798990226    34.74066589   301.39155385
 O      1   2   3     2.520740269852   111.85572916    72.46884457
 C      2   1   3     2.892952372291   111.52230684    56.15646792
 H      2   1   3     2.063761780192   107.64795713   175.25817868
 H      2   1   3     2.057332644076   109.19431936   293.37104209
 C      6   2   1     2.914443688570   113.08762117   299.38261224
 H      6   2   1     2.061105514402   109.62424957    60.42079300
 H      6   2   1     2.059131589348   108.50454649   179.55731111
 C      9   6   2     2.887506430325   109.24582566    70.06669691
 O     12   9   6     2.276239294029   123.92561173   247.48228867
 N      3   2   1     1.916158830246    10.47195906   207.57761023
 H      5   1   2     1.834166205717   110.96400851   183.49990906
 O     12   9   6     2.512084140751   112.43106987    68.03250564
 H      9   6   2     2.070165958156   107.50478491   186.29133315
 O      1   2   3     2.273419218413   125.29095440   252.40710728
 H     16  12   9     1.834355407758   110.90934412   186.17030938

---------------------
BASIS SET INFORMATION
---------------------
There are 4 groups of distinct atoms

 Group   1 Type C   : 10s4p1d contracted to 3s2p1d pattern {631/31/1}
 Group   2 Type H   : 4s1p contracted to 2s1p pattern {31/1}
 Group   3 Type O   : 10s4p1d contracted to 3s2p1d pattern {631/31/1}
 Group   4 Type N   : 10s4p1d contracted to 3s2p1d pattern {631/31/1}

Atom   0C    basis set group =>   1
Atom   1C    basis set group =>   1
Atom   2H    basis set group =>   2
Atom   3H    basis set group =>   2
Atom   4O    basis set group =>   3
Atom   5C    basis set group =>   1
Atom   6H    basis set group =>   2
Atom   7H    basis set group =>   2
Atom   8C    basis set group =>   1
Atom   9H    basis set group =>   2
Atom  10H    basis set group =>   2
Atom  11C    basis set group =>   1
Atom  12O    basis set group =>   3
Atom  13N    basis set group =>   4
Atom  14H    basis set group =>   2
Atom  15O    basis set group =>   3
Atom  16H    basis set group =>   2
Atom  17O    basis set group =>   3
Atom  18H    basis set group =>   2
---------------------------------
AUXILIARY/J BASIS SET INFORMATION
---------------------------------
There are 4 groups of distinct atoms

 Group   1 Type C   : 12s5p4d2f1g contracted to 6s4p3d1f1g pattern {711111/2111/211/2/1}
 Group   2 Type H   : 5s2p1d contracted to 3s1p1d pattern {311/2/1}
 Group   3 Type O   : 12s5p4d2f1g contracted to 6s4p3d1f1g pattern {711111/2111/211/2/1}
 Group   4 Type N   : 12s5p4d2f1g contracted to 6s4p3d1f1g pattern {711111/2111/211/2/1}

Atom   0C    basis set group =>   1
Atom   1C    basis set group =>   1
Atom   2H    basis set group =>   2
Atom   3H    basis set group =>   2
Atom   4O    basis set group =>   3
Atom   5C    basis set group =>   1
Atom   6H    basis set group =>   2
Atom   7H    basis set group =>   2
Atom   8C    basis set group =>   1
Atom   9H    basis set group =>   2
Atom  10H    basis set group =>   2
Atom  11C    basis set group =>   1
Atom  12O    basis set group =>   3
Atom  13N    basis set group =>   4
Atom  14H    basis set group =>   2
Atom  15O    basis set group =>   3
Atom  16H    basis set group =>   2
Atom  17O    basis set group =>   3
Atom  18H    basis set group =>   2
------------------------------------------------------------------------------
                             ORCA STARTUP CALCULATIONS
                           -- RI-GTO INTEGRALS CHOSEN --
------------------------------------------------------------------------------
------------------------------------------------------------------------------
                   ___                                                        
                  /   \      - P O W E R E D   B Y -                         
                 /     \                                                     
                 |  |  |   _    _      __       _____    __    __             
                 |  |  |  | |  | |    /  \     |  _  \  |  |  /  |          
                  \  \/   | |  | |   /    \    | | | |  |  | /  /          
                 / \  \   | |__| |  /  /\  \   | |_| |  |  |/  /          
                |  |  |   |  __  | /  /__\  \  |    /   |      \           
                |  |  |   | |  | | |   __   |  |    \   |  |\   \          
                \     /   | |  | | |  |  |  |  | |\  \  |  | \   \       
                 \___/    |_|  |_| |__|  |__|  |_| \__\ |__|  \__/        
                                                                              
                      - O R C A' S   B I G   F R I E N D -                    
                                      &                                       
                       - I N T E G R A L  F E E D E R -                       
                                                                              
 v1 FN, 2020, v2 2021, v3 2022-2024                                           
------------------------------------------------------------------------------


----------------------
SHARK INTEGRAL PACKAGE
----------------------

Number of atoms                             ...     19
Number of basis functions                   ...    185
Number of shells                            ...     87
Maximum angular momentum                    ...      2
Integral batch strategy                     ... SHARK/LIBINT Hybrid
RI-J (if used) integral strategy            ... SPLIT-RIJ (Revised 2003 algorithm where possible)
Printlevel                                  ...      1
Contraction scheme used                     ... SEGMENTED contraction
Prescreening option                         ... SCHWARTZ
   Thresh                                   ... 1.000e-10
   Tcut                                     ... 1.000e-11
   Tpresel                                  ... 1.000e-11 
Coulomb Range Separation                    ... NOT USED
Exchange Range Separation                   ... NOT USED
Multipole approximations                    ... NOT USED
Finite Nucleus Model                        ... NOT USED
CABS basis                                  ... NOT available
Auxiliary Coulomb fitting basis             ... AVAILABLE
   # of basis functions in Aux-J            ...    589
   # of shells in Aux-J                     ...    195
   Maximum angular momentum in Aux-J        ...      4
Auxiliary J/K fitting basis                 ... NOT available
Auxiliary Correlation fitting basis         ... NOT available
Auxiliary 'external' fitting basis          ... NOT available

Checking pre-screening integrals            ... done (  0.0 sec) Dimension = 87
   => SHARK Basis and OBASIS are compatible. Storing Pre-screening
Shell pair information
Shell pair cut-off parameter TPreSel        ...   1.0e-11
Total number of shell pairs                 ...      3828
Shell pairs after pre-screening             ...      3513
Total number of primitive shell pairs       ...     19347
Primitive shell pairs kept                  ...     11504
          la=0 lb=0:   1062 shell pairs
          la=1 lb=0:   1265 shell pairs
          la=1 lb=1:    404 shell pairs
          la=2 lb=0:    453 shell pairs
          la=2 lb=1:    274 shell pairs
          la=2 lb=2:     55 shell pairs

Checking whether 4 symmetric matrices of dimension 185 fit in memory
:Max Core in MB      =   4096.00
 MB in use           =      8.20
 MB left             =   4087.80
 MB needed           =      0.53
 Data fit in memory  = YES
Calculating RI/J V-Matrix + Cholesky decomp.... done (  0.0 sec)
Calculating Nuclear repulsion               ... done (  0.0 sec) ENN=    592.354615005479 Eh

Diagonalization of the overlap matrix:
Smallest eigenvalue                        ... 2.934e-03
Time for diagonalization                   ...    0.002 sec
Threshold for overlap eigenvalues          ... 1.000e-07
Number of eigenvalues below threshold      ... 0
Time for construction of square roots      ...    0.001 sec
Total time needed                          ...    0.002 sec

-------------------
DFT GRID GENERATION
-------------------

General Integration Accuracy     IntAcc      ... 4.388
Radial Grid Type                 RadialGrid  ... OptM3 with GC (2021)
Angular Grid (max. ang.)         AngularGrid ... 4 (Lebedev-302)
Angular grid pruning method      GridPruning ... 4 (adaptive)
Weight generation scheme         WeightScheme... mBecke (2022)
Basis function cutoff            BFCut       ... 1.0000e-10
Integration weight cutoff        WCut        ... 1.0000e-14
Partially contracted basis set               ... off
Rotationally invariant grid construction     ... off
Angular grids for H and He will be reduced by one unit

Total number of grid points                  ...    89047
Total number of batches                      ...     1402
Average number of points per batch           ...       63
Average number of grid points per atom       ...     4687
Grids setup in   0.4 sec
Initializing property integral containers    ... done (  0.0 sec)

SHARK setup successfully completed in   0.4 seconds

Maximum memory used throughout the entire STARTUP-calculation: 37.9 MB
-------------------------------------------------------------------------------
                                 ORCA GUESS
                   Start orbitals & Density for SCF / CASSCF
-------------------------------------------------------------------------------

------------
SCF SETTINGS
------------
Hamiltonian:
 Density Functional     Method          .... DFT(GTOs)
 Exchange Functional    Exchange        .... B97(D)
 Correlation Functional Correlation     .... B97(D)
 Gradients option       PostSCFGGA      .... off
 RI-approximation to the Coulomb term is turned on
   Number of AuxJ basis functions       .... 589


General Settings:
 Integral files         IntName         .... 0
 Hartree-Fock type      HFTyp           .... RHF
 Total Charge           Charge          ....    0
 Multiplicity           Mult            ....    1
 Number of Electrons    NEL             ....   78
 Basis Dimension        Dim             ....  185
 Nuclear Repulsion      ENuc            ....    592.3546150055 Eh

Convergence Acceleration:
 AO-DIIS                CNVDIIS         .... on
   Start iteration      DIISMaxIt       ....    12
   Startup error        DIISStart       ....  0.200000
   # of expansion vecs  DIISMaxEq       ....     5
   Bias factor          DIISBfac        ....   1.050
   Max. coefficient     DIISMaxC        ....  10.000
 MO-DIIS                CNVKDIIS        .... off
 Trust-Rad. Augm. Hess. CNVTRAH         .... auto
   Auto Start mean grad. ratio tolernc. ....  1.125000
   Auto Start start iteration           ....    50
   Auto Start num. interpolation iter.  ....    10
   Max. Number of Micro iterations      ....    24
   Max. Number of Macro iterations      .... Maxiter - #DIIS iter
   Number of Davidson start vectors     ....     2
   Converg. threshold    (grad. norm)   ....   5.000e-05
   Grad. Scal. Fac. for Micro threshold ....   0.100
   Minimum threshold for Micro iter.    ....   1.000e-02
   NR start threshold (gradient norm)   ....   1.000e-04
   Initial trust radius                 ....   0.400
   Minimum AH scaling param. (alpha)    ....   1.000
   Maximum AH scaling param. (alpha)    .... 1000.000
   Quad. conv. algorithm                .... NR
   White noise on init. David. guess    .... on
   Maximum white noise                  ....   0.010
   Pseudo random numbers                .... off
   Inactive MOs                         .... canonical
   Orbital update algorithm             .... Taylor
   Preconditioner                       .... Diag
   Full preconditioner red. dimension   ....   250
 SOSCF                 CNVSOSCF           .... on
   Start iteration     SOSCFMaxIt         ....   150
   Startup grad/error  SOSCFStart         ....  0.003300
   Hessian update      SOSCFHessUp        .... L-BFGS
   Autom. constraints  SOSCFAutoConstrain .... off
 Level Shifting         CNVShift        .... on
   Level shift para.    LevelShift      ....    0.2500
   Turn off err/grad.   ShiftErr        ....    0.0010
 Zerner damping         CNVZerner       .... off
 Static damping         CNVDamp         .... on
   Fraction old density DampFac         ....    0.7000
   Max. Damping (<1)    DampMax         ....    0.9800
   Min. Damping (>=0)   DampMin         ....    0.0000
   Turn off err/grad.   DampErr         ....    0.1000

SCF Procedure:
 Maximum # iterations   MaxIter         ....   125
 SCF integral mode      SCFMode         .... Direct
   Integral package                     .... SHARK and LIBINT hybrid scheme
 Reset frequency        DirectResetFreq ....    20
 Integral Threshold     Thresh          ....  1.000e-10 Eh
 Primitive CutOff       TCut            ....  1.000e-11 Eh

Convergence Tolerance:
 Convergence Check Mode ConvCheckMode   .... Total+1el-Energy
 Convergence forced     ConvForced      .... 0
 Energy Change          TolE            ....  1.000e-06 Eh
 1-El. energy change                    ....  1.000e-03 Eh
 Orbital Gradient       TolG            ....  5.000e-05
 Orbital Rotation angle TolX            ....  5.000e-05
 DIIS Error             TolErr          ....  1.000e-06

------------------------------
INITIAL GUESS: MODEL POTENTIAL
------------------------------
Loading Hartree-Fock densities                     ... done
Calculating cut-offs                               ... done
Initializing the effective Hamiltonian             ... done
Setting up the integral package (SHARK)            ... done
Starting the Coulomb interaction                   ... done (   0.1 sec)
Making the grid                                    ... done (   0.1 sec)
Mapping shells                                     ... done
Starting the XC term evaluation                    ... done (   0.1 sec)
  promolecular density results
     # of electrons  =     77.999019186
     EX              =    -66.730819826
     EC              =     -3.513330510
     EX+EC           =    -70.244150336
Transforming the Hamiltonian                       ... done (   0.0 sec)
Diagonalizing the Hamiltonian                      ... done (   0.0 sec)
Back transforming the eigenvectors                 ... done (   0.0 sec)
Now organizing SCF variables                       ... done
                      ------------------
                      INITIAL GUESS DONE (   0.3 sec)
                      ------------------
             **** ENERGY FILE WAS UPDATED (0.en.tmp) ****
Finished Guess after   0.3 sec
Maximum memory used throughout the entire GUESS-calculation: 13.6 MB

-------------------------------------------------------------------------------------------
                                      ORCA LEAN-SCF
                              memory conserving SCF solver
-------------------------------------------------------------------------------------------

----------------------------------------D-I-I-S--------------------------------------------
Iteration    Energy (Eh)           Delta-E    RMSDP     MaxDP     DIISErr   Damp  Time(sec)
-------------------------------------------------------------------------------------------
               ***  Starting incremental Fock matrix formation  ***
    1    -550.8637668711813831     0.00e+00  3.99e-03  9.92e-02  2.59e-01  0.700   0.5
    2    -551.0625758762893156    -1.99e-01  2.40e-03  5.04e-02  9.27e-02  0.700   0.5
                               ***Turning on AO-DIIS***
    3    -551.1200884069579615    -5.75e-02  8.79e-04  1.51e-02  2.90e-02  0.700   0.5
    4    -551.1593730381340492    -3.93e-02  1.16e-03  1.86e-02  1.52e-02  0.000   0.5
    5    -551.2517768317762830    -9.24e-02  4.05e-04  8.02e-03  1.06e-02  0.000   0.5
                              *** Initializing SOSCF ***
---------------------------------------S-O-S-C-F--------------------------------------
Iteration    Energy (Eh)           Delta-E    RMSDP     MaxDP     MaxGrad    Time(sec)
--------------------------------------------------------------------------------------
    6    -551.2526675881600795    -8.91e-04  1.45e-04  2.39e-03  2.88e-03     0.5
               *** Restarting incremental Fock matrix formation ***
    7    -551.2527346176924539    -6.70e-05  1.23e-04  2.71e-03  6.85e-04     0.5
    8    -551.2527104446838848     2.42e-05  6.76e-05  2.08e-03  1.77e-03     0.4
    9    -551.2527448536121710    -3.44e-05  4.46e-05  8.26e-04  2.11e-04     0.4
   10    -551.2527424788792132     2.37e-06  2.56e-05  4.63e-04  2.97e-04     0.4
   11    -551.2527465480069395    -4.07e-06  9.25e-06  2.44e-04  4.24e-05     0.4
   12    -551.2527463950735864     1.53e-07  5.59e-06  1.67e-04  6.83e-05     0.4
                 **** Energy Check signals convergence ****

               *****************************************************
               *                     SUCCESS                       *
               *           SCF CONVERGED AFTER  12 CYCLES          *
               *****************************************************

             **** ENERGY FILE WAS UPDATED (0.en.tmp) ****

----------------
TOTAL SCF ENERGY
----------------

Total Energy       :       -551.25274661252308 Eh          -15000.34984 eV

Components:
Nuclear Repulsion  :        592.35461500547933 Eh           16118.78854 eV
Electronic Energy  :      -1143.60736161800241 Eh          -31119.13838 eV
One Electron Energy:      -1930.03900465336233 Eh          -52519.03133 eV
Two Electron Energy:        786.43164303535980 Eh           21399.89296 eV

Virial components:
Potential Energy   :      -1099.77842203625505 Eh          -29926.49230 eV
Kinetic Energy     :        548.52567542373197 Eh           14926.14246 eV
Virial Ratio       :          2.00497163817662

DFT components:
N(Alpha)           :       38.999886189628 electrons
N(Beta)            :       38.999886189628 electrons
N(Total)           :       77.999772379255 electrons
E(X)               :      -68.096848825596 Eh       
E(C)               :       -3.501619659390 Eh       
E(XC)              :      -71.598468484986 Eh       

---------------
SCF CONVERGENCE
---------------

  Last Energy change         ...   -1.5293e-07  Tolerance :   1.0000e-06
  Last MAX-Density change    ...    1.6660e-04  Tolerance :   1.0000e-05
  Last RMS-Density change    ...    5.5901e-06  Tolerance :   1.0000e-06
  Last DIIS Error            ...    2.8839e-03  Tolerance :   1.0000e-06
  Last Orbital Gradient      ...    6.8270e-05  Tolerance :   5.0000e-05
  Last Orbital Rotation      ...    8.5048e-05  Tolerance :   5.0000e-05


----------------
ORBITAL ENERGIES
----------------

  NO   OCC          E(Eh)            E(eV) 
   0   2.0000     -18.810580      -511.8619 
   1   2.0000     -18.810140      -511.8499 
   2   2.0000     -18.751538      -510.2553 
   3   2.0000     -18.748787      -510.1804 
   4   2.0000     -13.986868      -380.6020 
   5   2.0000     -10.030624      -272.9471 
   6   2.0000     -10.025989      -272.8210 
   7   2.0000      -9.949227      -270.7322 
   8   2.0000      -9.919602      -269.9261 
   9   2.0000      -9.916225      -269.8342 
  10   2.0000      -1.021279       -27.7904 
  11   2.0000      -1.016313       -27.6553 
  12   2.0000      -0.930579       -25.3223 
  13   2.0000      -0.928727       -25.2719 
  14   2.0000      -0.816890       -22.2287 
  15   2.0000      -0.722838       -19.6694 
  16   2.0000      -0.657979       -17.9045 
  17   2.0000      -0.601163       -16.3585 
  18   2.0000      -0.552794       -15.0423 
  19   2.0000      -0.515511       -14.0278 
  20   2.0000      -0.471303       -12.8248 
  21   2.0000      -0.449972       -12.2444 
  22   2.0000      -0.430342       -11.7102 
  23   2.0000      -0.419829       -11.4241 
  24   2.0000      -0.415184       -11.2977 
  25   2.0000      -0.406157       -11.0521 
  26   2.0000      -0.384719       -10.4687 
  27   2.0000      -0.375684       -10.2229 
  28   2.0000      -0.360122        -9.7994 
  29   2.0000      -0.354310        -9.6413 
  30   2.0000      -0.334092        -9.0911 
  31   2.0000      -0.316840        -8.6217 
  32   2.0000      -0.309801        -8.4301 
  33   2.0000      -0.300921        -8.1885 
  34   2.0000      -0.271696        -7.3932 
  35   2.0000      -0.268141        -7.2965 
  36   2.0000      -0.222740        -6.0611 
  37   2.0000      -0.220638        -6.0039 
  38   2.0000      -0.196805        -5.3553 
  39   0.0000      -0.027491        -0.7481 
  40   0.0000      -0.003593        -0.0978 
  41   0.0000       0.054349         1.4789 
  42   0.0000       0.060778         1.6538 
  43   0.0000       0.070561         1.9201 
  44   0.0000       0.104918         2.8550 
  45   0.0000       0.116112         3.1596 
  46   0.0000       0.132196         3.5972 
  47   0.0000       0.152512         4.1501 
  48   0.0000       0.160071         4.3557 
  49   0.0000       0.172368         4.6904 
*Only the first 10 virtual orbitals were printed.

                    ********************************
                    * MULLIKEN POPULATION ANALYSIS *
                    ********************************

-----------------------
MULLIKEN ATOMIC CHARGES
-----------------------
   0 C :    0.507806
   1 C :   -0.269353
   2 H :    0.244903
   3 H :    0.253950
   4 O :   -0.449025
   5 C :   -0.185211
   6 H :    0.143690
   7 H :    0.139859
   8 C :   -0.063837
   9 H :    0.138682
  10 H :    0.122540
  11 C :    0.510623
  12 O :   -0.432683
  13 N :   -0.559390
  14 H :    0.321322
  15 O :   -0.446085
  16 H :    0.128395
  17 O :   -0.428831
  18 H :    0.322646
Sum of atomic charges:   -0.0000000

--------------------------------
MULLIKEN REDUCED ORBITAL CHARGES
--------------------------------
  0 C s       :     2.989600  s :     2.989600
      pz      :     0.783065  p :     2.375254
      px      :     0.734482
      py      :     0.857706
      dz2     :     0.016970  d :     0.127340
      dxz     :     0.022691
      dyz     :     0.027838
      dx2y2   :     0.036338
      dxy     :     0.023503

  1 C s       :     3.243603  s :     3.243603
      pz      :     1.030121  p :     2.991416
      px      :     0.987109
      py      :     0.974186
      dz2     :     0.006464  d :     0.034334
      dxz     :     0.005164
      dyz     :     0.007538
      dx2y2   :     0.006615
      dxy     :     0.008553

  2 H s       :     0.731103  s :     0.731103
      pz      :     0.009721  p :     0.023994
      px      :     0.006035
      py      :     0.008238

  3 H s       :     0.721945  s :     0.721945
      pz      :     0.006879  p :     0.024105
      px      :     0.010154
      py      :     0.007072

  4 O s       :     3.823875  s :     3.823875
      pz      :     1.439303  p :     4.602344
      px      :     1.579622
      py      :     1.583419
      dz2     :     0.002482  d :     0.022806
      dxz     :     0.004113
      dyz     :     0.006370
      dx2y2   :     0.006369
      dxy     :     0.003472

  5 C s       :     3.228448  s :     3.228448
      pz      :     0.947864  p :     2.920725
      px      :     0.928738
      py      :     1.044123
      dz2     :     0.006741  d :     0.036038
      dxz     :     0.006250
      dyz     :     0.008685
      dx2y2   :     0.006520
      dxy     :     0.007843

  6 H s       :     0.844395  s :     0.844395
      pz      :     0.006157  p :     0.011915
      px      :     0.002950
      py      :     0.002808

  7 H s       :     0.848506  s :     0.848506
      pz      :     0.002911  p :     0.011635
      px      :     0.003844
      py      :     0.004880

  8 C s       :     3.205406  s :     3.205406
      pz      :     0.934785  p :     2.801522
      px      :     0.992356
      py      :     0.874381
      dz2     :     0.011543  d :     0.056910
      dxz     :     0.007372
      dyz     :     0.014810
      dx2y2   :     0.012264
      dxy     :     0.010921

  9 H s       :     0.849756  s :     0.849756
      pz      :     0.002833  p :     0.011562
      px      :     0.003698
      py      :     0.005031

 10 H s       :     0.865959  s :     0.865959
      pz      :     0.003817  p :     0.011500
      px      :     0.002482
      py      :     0.005201

 11 C s       :     2.983536  s :     2.983536
      pz      :     0.816599  p :     2.379947
      px      :     0.735457
      py      :     0.827892
      dz2     :     0.025964  d :     0.125894
      dxz     :     0.022434
      dyz     :     0.030288
      dx2y2   :     0.022821
      dxy     :     0.024387

 12 O s       :     3.864840  s :     3.864840
      pz      :     1.384403  p :     4.539804
      px      :     1.472861
      py      :     1.682540
      dz2     :     0.009389  d :     0.028039
      dxz     :     0.007257
      dyz     :     0.005126
      dx2y2   :     0.003015
      dxy     :     0.003252

 13 N s       :     3.587828  s :     3.587828
      pz      :     1.374437  p :     3.943276
      px      :     1.162434
      py      :     1.406405
      dz2     :     0.005305  d :     0.028287
      dxz     :     0.007173
      dyz     :     0.004838
      dx2y2   :     0.003461
      dxy     :     0.007510

 14 H s       :     0.640852  s :     0.640852
      pz      :     0.013252  p :     0.037826
      px      :     0.007979
      py      :     0.016596

 15 O s       :     3.826002  s :     3.826002
      pz      :     1.678268  p :     4.597109
      px      :     1.605402
      py      :     1.313438
      dz2     :     0.003067  d :     0.022975
      dxz     :     0.004367
      dyz     :     0.006415
      dx2y2   :     0.005530
      dxy     :     0.003597

 16 H s       :     0.860508  s :     0.860508
      pz      :     0.002494  p :     0.011098
      px      :     0.005973
      py      :     0.002630

 17 O s       :     3.865016  s :     3.865016
      pz      :     1.620632  p :     4.535764
      px      :     1.502493
      py      :     1.412639
      dz2     :     0.002609  d :     0.028051
      dxz     :     0.002443
      dyz     :     0.006519
      dx2y2   :     0.008726
      dxy     :     0.007754

 18 H s       :     0.639290  s :     0.639290
      pz      :     0.012047  p :     0.038064
      px      :     0.007952
      py      :     0.018065



                     *******************************
                     * LOEWDIN POPULATION ANALYSIS *
                     *******************************

----------------------
LOEWDIN ATOMIC CHARGES
----------------------
   0 C :    0.111946
   1 C :   -0.149198
   2 H :    0.128661
   3 H :    0.128284
   4 O :   -0.130148
   5 C :   -0.107800
   6 H :    0.097746
   7 H :    0.085682
   8 C :   -0.053060
   9 H :    0.083150
  10 H :    0.079895
  11 C :    0.095876
  12 O :   -0.227076
  13 N :   -0.249530
  14 H :    0.184105
  15 O :   -0.125772
  16 H :    0.087438
  17 O :   -0.226000
  18 H :    0.185803

-------------------------------
LOEWDIN REDUCED ORBITAL CHARGES
-------------------------------
  0 C s       :     2.848438  s :     2.848438
      pz      :     0.867655  p :     2.737593
      px      :     0.861662
      py      :     1.008275
      dz2     :     0.037624  d :     0.302023
      dxz     :     0.056152
      dyz     :     0.064856
      dx2y2   :     0.084960
      dxy     :     0.058430

  1 C s       :     2.905044  s :     2.905044
      pz      :     1.070487  p :     3.166611
      px      :     1.053238
      py      :     1.042886
      dz2     :     0.014324  d :     0.077543
      dxz     :     0.010118
      dyz     :     0.018093
      dx2y2   :     0.016751
      dxy     :     0.018257

  2 H s       :     0.792298  s :     0.792298
      pz      :     0.035543  p :     0.079041
      px      :     0.018748
      py      :     0.024750

  3 H s       :     0.791127  s :     0.791127
      pz      :     0.020777  p :     0.080589
      px      :     0.036867
      py      :     0.022945

  4 O s       :     3.468532  s :     3.468532
      pz      :     1.449130  p :     4.610615
      px      :     1.583396
      py      :     1.578089
      dz2     :     0.005678  d :     0.051001
      dxz     :     0.013523
      dyz     :     0.013810
      dx2y2   :     0.011702
      dxy     :     0.006288

  5 C s       :     2.903435  s :     2.903435
      pz      :     1.024667  p :     3.123931
      px      :     1.019524
      py      :     1.079740
      dz2     :     0.016730  d :     0.080434
      dxz     :     0.014085
      dyz     :     0.018059
      dx2y2   :     0.015182
      dxy     :     0.016378

  6 H s       :     0.861966  s :     0.861966
      pz      :     0.023394  p :     0.040289
      px      :     0.008772
      py      :     0.008123

  7 H s       :     0.872413  s :     0.872413
      pz      :     0.009054  p :     0.041906
      px      :     0.013931
      py      :     0.018920

  8 C s       :     2.882876  s :     2.882876
      pz      :     1.017406  p :     3.040465
      px      :     1.035366
      py      :     0.987693
      dz2     :     0.026545  d :     0.129719
      dxz     :     0.016225
      dyz     :     0.035918
      dx2y2   :     0.026678
      dxy     :     0.024353

  9 H s       :     0.875783  s :     0.875783
      pz      :     0.009398  p :     0.041068
      px      :     0.013147
      py      :     0.018523

 10 H s       :     0.880037  s :     0.880037
      pz      :     0.013819  p :     0.040068
      px      :     0.007110
      py      :     0.019139

 11 C s       :     2.857832  s :     2.857832
      pz      :     0.947155  p :     2.745198
      px      :     0.867793
      py      :     0.930249
      dz2     :     0.057338  d :     0.301094
      dxz     :     0.058173
      dyz     :     0.074171
      dx2y2   :     0.053227
      dxy     :     0.058185

 12 O s       :     3.553585  s :     3.553585
      pz      :     1.445383  p :     4.615607
      px      :     1.498527
      py      :     1.671698
      dz2     :     0.016275  d :     0.057883
      dxz     :     0.019389
      dyz     :     0.010385
      dx2y2   :     0.005863
      dxy     :     0.005971

 13 N s       :     3.193400  s :     3.193400
      pz      :     1.389438  p :     3.998813
      px      :     1.192602
      py      :     1.416774
      dz2     :     0.009068  d :     0.057317
      dxz     :     0.013745
      dyz     :     0.009880
      dx2y2   :     0.008148
      dxy     :     0.016475

 14 H s       :     0.700529  s :     0.700529
      pz      :     0.039425  p :     0.115366
      px      :     0.022498
      py      :     0.053443

 15 O s       :     3.463053  s :     3.463053
      pz      :     1.668461  p :     4.611021
      px      :     1.608312
      py      :     1.334248
      dz2     :     0.005728  d :     0.051698
      dxz     :     0.007688
      dyz     :     0.013363
      dx2y2   :     0.012641
      dxy     :     0.012277

 16 H s       :     0.873141  s :     0.873141
      pz      :     0.007787  p :     0.039421
      px      :     0.022788
      py      :     0.008847

 17 O s       :     3.552868  s :     3.552868
      pz      :     1.600697  p :     4.615247
      px      :     1.522595
      py      :     1.491956
      dz2     :     0.007290  d :     0.057885
      dxz     :     0.004190
      dyz     :     0.010600
      dx2y2   :     0.016189
      dxy     :     0.019614

 18 H s       :     0.698554  s :     0.698554
      pz      :     0.037344  p :     0.115643
      px      :     0.022395
      py      :     0.055904



                      *****************************
                      * MAYER POPULATION ANALYSIS *
                      *****************************

  NA   - Mulliken gross atomic population
  ZA   - Total nuclear charge
  QA   - Mulliken gross atomic charge
  VA   - Mayer's total valence
  BVA  - Mayer's bonded valence
  FA   - Mayer's free valence

  ATOM       NA         ZA         QA         VA         BVA        FA
  0 C      5.4922     6.0000     0.5078     3.9989     3.9989     0.0000
  1 C      6.2694     6.0000    -0.2694     3.8319     3.8319    -0.0000
  2 H      0.7551     1.0000     0.2449     0.9194     0.9194    -0.0000
  3 H      0.7461     1.0000     0.2539     0.9325     0.9325     0.0000
  4 O      8.4490     8.0000    -0.4490     2.0656     2.0656     0.0000
  5 C      6.1852     6.0000    -0.1852     3.8707     3.8707     0.0000
  6 H      0.8563     1.0000     0.1437     0.9495     0.9495    -0.0000
  7 H      0.8601     1.0000     0.1399     0.9557     0.9557    -0.0000
  8 C      6.0638     6.0000    -0.0638     3.8846     3.8846    -0.0000
  9 H      0.8613     1.0000     0.1387     0.9555     0.9555    -0.0000
 10 H      0.8775     1.0000     0.1225     0.9528     0.9528    -0.0000
 11 C      5.4894     6.0000     0.5106     3.9576     3.9576     0.0000
 12 O      8.4327     8.0000    -0.4327     2.0941     2.0941    -0.0000
 13 N      7.5594     7.0000    -0.5594     2.8967     2.8967    -0.0000
 14 H      0.6787     1.0000     0.3213     0.9159     0.9159    -0.0000
 15 O      8.4461     8.0000    -0.4461     2.0497     2.0497    -0.0000
 16 H      0.8716     1.0000     0.1284     0.9494     0.9494    -0.0000
 17 O      8.4288     8.0000    -0.4288     2.0807     2.0807    -0.0000
 18 H      0.6774     1.0000     0.3226     0.9150     0.9150    -0.0000

  Mayer bond orders larger than 0.100000
B(  0-C ,  1-C ) :   0.9546 B(  0-C ,  4-O ) :   1.1052 B(  0-C , 17-O ) :   1.8809 
B(  1-C ,  5-C ) :   0.9912 B(  1-C ,  6-H ) :   0.9328 B(  1-C ,  7-H ) :   0.9287 
B(  2-H , 13-N ) :   0.9084 B(  3-H , 13-N ) :   0.8886 B(  4-O , 14-H ) :   0.8515 
B(  5-C ,  8-C ) :   0.9778 B(  5-C ,  9-H ) :   0.9322 B(  5-C , 10-H ) :   0.9419 
B(  8-C , 11-C ) :   0.9014 B(  8-C , 13-N ) :   1.0555 B(  8-C , 16-H ) :   0.9252 
B( 11-C , 12-O ) :   1.8820 B( 11-C , 15-O ) :   1.0966 B( 15-O , 18-H ) :   0.8499 


-------
TIMINGS
-------

Total SCF time: 0 days 0 hours 0 min 6 sec 

Total time                  ....       6.073 sec
Sum of individual times     ....       5.668 sec  ( 93.3%)

SCF preparation             ....       0.025 sec  (  0.4%)
Fock matrix formation       ....       5.590 sec  ( 92.0%)
  Startup                   ....       0.001 sec  (  0.0% of F)
  Split-RI-J                ....       2.042 sec  ( 36.5% of F)
  XC integration            ....       3.937 sec  ( 70.4% of F)
    XC Preparation          ....       0.000 sec  (  0.0% of XC)
    Basis function eval.    ....       1.370 sec  ( 34.8% of XC)
    Density eval.           ....       0.879 sec  ( 22.3% of XC)
    XC-Functional eval.     ....       0.677 sec  ( 17.2% of XC)
    XC-Potential eval.      ....       0.916 sec  ( 23.3% of XC)
Diagonalization             ....       0.000 sec  (  0.0%)
Density matrix formation    ....       0.004 sec  (  0.1%)
Total Energy calculation    ....       0.001 sec  (  0.0%)
Population analysis         ....       0.003 sec  (  0.0%)
Orbital Transformation      ....       0.006 sec  (  0.1%)
Orbital Orthonormalization  ....       0.000 sec  (  0.0%)
DIIS solution               ....       0.025 sec  (  0.4%)
SOSCF solution              ....       0.015 sec  (  0.2%)
Finished LeanSCF after   6.1 sec

Maximum memory used throughout the entire LEANSCF-calculation: 20.8 MB



-------------------------------------------------------------------------------
                          DFT DISPERSION CORRECTION                            
-------------------------------------------------------------------------------
Active option DFTDOPT                   ...         2   
Final C6-coefficient scaling factor     ...     1.250
Final VDW-radii scaling factor          ...     1.100
Damping factor alpha                    ...    20.000
-------------------------   ----------------
Dispersion correction           -0.029793186
-------------------------   ----------------


-------------------------   --------------------
FINAL SINGLE POINT ENERGY      -551.282539798585
-------------------------   --------------------


------------------------------------------------------------------------------
                              ORCA PROPERTY CALCULATIONS
------------------------------------------------------------------------------

GBWName                                 ... 0.gbw
Number of atoms                         ...     19
Number of basis functions               ...    185
Max core memory                         ...   4096 MB

Electric properties:
Dipole moment                           ... YES
Quadrupole moment                       ...  NO
Static polarizability (Dipole/Dipole)   ...  NO
Static polarizability (Dipole/Quad.)    ...  NO
Static polarizability (Quad./Quad.)     ...  NO
Static polarizability (Velocity)        ...  NO
Static hyperpolarizability              ...  NO

Atomic electric properties:
Dipole moment                           ...  NO
Quadrupole moment                       ...  NO
Static polarizability                   ...  NO

Choice of electric origin               ... Center of mass
Position of electric origin             ...    -2.430333     0.758931     0.729229

General magnetic properties:
Magnetizability                         ...  NO

EPR properties:
g-Tensor (aka g-matrix)                 ...  NO
Zero-Field splitting spin-orbit         ...  NO
Zero-field splitting spin-spin          ...  NO
Hyperfine couplings                     ...  NO (   0 nuclei)
Quadrupole couplings                    ...  NO (   0 nuclei)
Contact density                         ...  NO (   0 nuclei)

NMR properties:
Chemical shifts                         ...  NO (   0 nuclei)
Spin-rotation constants                 ...  NO (   0 nuclei)
Spin-spin couplings                     ...  NO (   0 nuclei,    0 pairs)

Choice of magnetic origin               ... GIAO
Position of magnetic origin             ...     0.000000     0.000000     0.000000

Properties with geometric perturbations:
SCF Hessian                             ...  NO
IR spectrum                             ...  NO
VCD spectrum                            ...  NO
X-ray spectroscopy properties:
SCF XES/XAS/RIXS spectra                ...  NO

SCF SOC stabilization energy            ...  NO
Diagonal Born-Oppenheimer correction    ...  NO

-------------
DIPOLE MOMENT
-------------

Method             : SCF
Type of density    : Electron Density
Multiplicity       :   1
Irrep              :   0
Energy             :  -551.2527466125230831 Eh
Basis              : AO
                                X                 Y                 Z
Electronic contribution:     -0.195541500      -5.622759675       3.476204127
Nuclear contribution   :      0.308574517       5.673105273      -3.430790772
                        -----------------------------------------
Total Dipole Moment    :      0.113033017       0.050345598       0.045413356
                        -----------------------------------------
Magnitude (a.u.)       :      0.131808630
Magnitude (Debye)      :      0.335030913



--------------------
Rotational spectrum 
--------------------
 
Rotational constants in cm-1:             0.055298             0.042645             0.036559 
Rotational constants in MHz :          1657.797886          1278.471308          1096.022442 

Dipole components along the rotational axes: 
x,y,z [a.u.] :    -0.131233     0.012212     0.001533 
x,y,z [Debye]:    -0.333567     0.031039     0.003896 

 

Dipole moment calculation done in   0.0 sec 

Maximum memory used throughout the entire PROP-calculation: 12.0 MB

--------------------------------
SUGGESTED CITATIONS FOR THIS RUN
--------------------------------

Below you find a list of papers that are relevant to this ORCA run
We neither can nor want to force you to cite these papers, but we appreciate if you do
You receive ORCA, which is the product of decades of hard work by many enthusiastic individuals, for free
The only thing we kindly ask in return is that you cite our papers,
We deeply appreciate it, if you show your appreciation for ORCA by not just citing the generic ORCA reference.

Please note that relegating all ORCA citations to the supporting information does *not* help us.
SI sections are not indexed - citations you put there will not count into any citation statistics
But we need these citations in order to attract the funding resources that allow us to do what we are doing

Therefore, if you are a happy ORCA user, please consider citing a few of the papers listed below in the main body of your paper

In addition to the list printed below, the program has created the file 0.bibtex that contains the list in bibtex format
You can import this file easily into all common literature databanks and citation aid programs


List of essential papers. We consider these as the minimum necessary citations

  1. Neese, F.
     Software update: the ORCA program system, version 6.0
     WIRES Comput. Molec. Sci. 2025 15(1), e70019
     doi.org/10.1002/wcms.7019

List of papers to cite with high priority. The work reported in these papers was absolutely
necessary for this run to complete.
Our perspective: the developers of density functionals and basis sets usually get cited in chemistry papers
Good! But without the algorithms to do something with them, the functionals or basis sets would not do anything.
Hence, in our opinion, the algorithm design and method developments papers are equally worthy of getting cited

  1. Neese, F.
     An improvement of the resolution of the identity approximation for the formation of the Coulomb matrix
     J. Comp. Chem. 2003 24(14), 1740-1747
     doi.org/10.1002/jcc.10318
  2. Grimme, S.
     Semiempirical GGA-type density functional constructed with a long-range dispersion correction
     J.Comput.Chem. 2006 27(15), 1787-1799
     doi.org/10.1002/jcc.20495
  3. Neese, F.
     The SHARK Integral Generation and Digestion System
     J. Comp. Chem. 2022 44(3), 381
     doi.org/10.1002/jcc.26942

List of suggested additional citations. These are papers that are important in the 'surrounding' of 
of this run, or papers that preceded the highly important papers. If you like your results we are grateful for a citation.

  1. Neese, F.
     The ORCA program system
     WIRES Comput. Molec. Sci. 2012 2(1), 73-78
     doi.org/10.1002/wcms.81
  2. Neese, F.
     Software update: the ORCA program system, version 4.0
     WIRES Comput. Molec. Sci. 2018 8(1), 1-6
     doi.org/10.1002/wcms.1327
  3. Neese, F.; Wennmohs, F.; Becker, U.; Riplinger, C.
     The ORCA quantum chemistry program package
     J. Chem. Phys. 2020 152(22), 224108
     doi.org/10.1063/5.0004608
  4. Neese, F.
     Software update: The ORCA program system—Version 5.0
     WIRES Comput. Molec. Sci. 2022 12(1), e1606
     doi.org/10.1002/wcms.1606

List of optional additional citations

  1. Neese, F.
     Approximate second-order SCF convergence for spin unrestricted wavefunctions
     Chem. Phys. Lett. 2000 325(1-3), 93-98
     doi.org/10.1016/s0009-2614(00)00662-x

Timings for individual modules:

Sum of individual times          ...        6.854 sec (=   0.114 min)
Startup calculation              ...        0.441 sec (=   0.007 min)   6.4 %
SCF iterations                   ...        6.382 sec (=   0.106 min)  93.1 %
Property calculations            ...        0.032 sec (=   0.001 min)   0.5 %
                             ****ORCA TERMINATED NORMALLY****
TOTAL RUN TIME: 0 days 0 hours 0 minutes 6 seconds 894 msec
