
                                 *****************
                                 * O   R   C   A *
                                 *****************

                                            #,                                       
                                            ###                                      
                                            ####                                     
                                            #####                                    
                                            ######                                   
                                           ########,                                 
                                     ,,################,,,,,                         
                               ,,#################################,,                 
                          ,,##########################################,,             
                       ,#########################################, ''#####,          
                    ,#############################################,,   '####,        
                  ,##################################################,,,,####,       
                ,###########''''           ''''###############################       
              ,#####''   ,,,,##########,,,,          '''####'''          '####       
            ,##' ,,,,###########################,,,                        '##       
           ' ,,###''''                  '''############,,,                           
         ,,##''                                '''############,,,,        ,,,,,,###''
      ,#''                                            '''#######################'''  
     '                                                          ''''####''''         
             ,#######,   #######,   ,#######,      ##                                
            ,#'     '#,  ##    ##  ,#'     '#,    #''#        ,####,    ,#,          
            ##       ##  ##   ,#'  ##            #'  '#       #'       ,# #          
            ##       ##  #######   ##           ,######,      #####,      #          
            '#,     ,#'  ##    ##  '#,     ,#' ,#      #,     #,   #      #          
             '#######'   ##     ##  '#######'  #'      '#     '####' #    #          



                #########################################################
                #                        -***-                          #
                #          Department of theory and spectroscopy        #
                #                                                       #
                #                      Frank Neese                      #
                #                                                       #
                #     Directorship, Architecture, Infrastructure        #
                #                    SHARK, DRIVERS                     #
                #        Core code/Algorithms in most modules           #
                #                                                       #
                #        Max Planck Institute fuer Kohlenforschung      #
                #                Kaiser Wilhelm Platz 1                 #
                #                 D-45470 Muelheim/Ruhr                 #
                #                      Germany                          #
                #                                                       #
                #                  All rights reserved                  #
                #                        -***-                          #
                #########################################################


                         Program Version 6.1.0  -  RELEASE   -
                                (GIT: $679e74b$)
                          ($2025-06-10 18:02:51 +0200$)


 With contributions from (in alphabetic order):
[Max-Planck-Institut fuer Kohlenforschung]                               
  Daniel Aravena         : Magnetic Suceptibility                        
  Michael Atanasov       : Ab Initio Ligand Field Theory (pilot matlab implementation)
  Alexander A. Auer      : GIAO ZORA, VPT2 properties, NMR spectrum      
  Ute Becker             : All parallelization in ORCA, NUMFREQ, NUMCALC 
  Giovanni Bistoni       : ED, misc. LED, open-shell LED, HFLD           
  Dmytro Bykov           : pre 5.0 version of the SCF Hessian            
  Marcos Casanova-Páez   : Triplet and SCS-CIS(D). UHF-(DLPNO)-IP/EA/STEOM-CCSD. UHF-CVS-IP/STEOM-CCSD   
  Vijay G. Chilkuri      : MRCI spin determinant printing, contributions to CSF-ICE 
  Pauline Colinet        : FMM embedding                                 
  Dipayan Datta          : RHF DLPNO-CCSD density                        
  Achintya Kumar Dutta   : EOM-CC, STEOM-CC                              
  Nicolas Foglia         : Exact transition moments, OPA infrastructure, MCD improvements    
  Dmitry Ganyushin       : Spin-Orbit,Spin-Spin,Magnetic field MRCI      
  Miquel Garcia-Rates    : C-PCM and meta-GGA Hessian, CCSD/C-PCM, Gaussian charge scheme 
  Tiago L. C. Gouveia    : GS-ROHF, GS-ROCIS                             
  Yang Guo               : DLPNO-NEVPT2, F12-NEVPT2, CIM, IAO-localization        
  Andreas Hansen         : Spin unrestricted coupled pair/coupled cluster methods 
  Ingolf Harden          : AUTO-CI MPn and infrastructure                
  Benjamin Helmich-Paris : MC-RPA, TRAH-(SCF,CASSCF), AVAS, COSX integrals, SCF dyn. polar., MC-PDFT, srDFT 
  Lee Huntington         : MR-EOM, pCC                                   
  Robert Izsak           : Overlap fitted RIJCOSX, COSX-SCS-MP3, EOM     
  Riya Kayal             : Wick's Theorem for AUTO-CI, AUTO-CI UHF-CCSDT 
  Emily Kempfer          : AUTO-CI RHF CISDT and CCSDT, approximate NEVPT4
  Christian Kollmar      : KDIIS, OOCD, Brueckner-CCSD(T), CCSD density, CASPT2, CASPT2-K, improved NEVPT2 
  Axel Koslowski         : Symmetry handling                             
  Simone Kossmann        : meta-GGA functionals, TD-DFT gradient, OOMP2, (MP2 Hessian; deprecated post 5.0) 
  Lucas Lang             : DCDCAS, Hyperfine gauge corrections, ICE-SOC+SSC
  Marvin Lechner         : AUTO-CI (C++ implementation), FIC-MRCC        
  Spencer Leger          : CASSCF response                               
  Dagmar Lenk            : GEPOL surface, SMD, ORCA-2-JSON               
  Dimitrios Liakos       : Extrapolation schemes; Compound Job, Property file
  Dimitrios Manganas     : Further ROCIS development; embedding schemes. LFT, Crystal Embedding 
  Dimitrios Pantazis     : SARC Basis sets                               
  Anastasios Papadopoulos: AUTO-CI, single reference methods and gradients 
  Taras Petrenko         : pre 6.0 DFT Hessian and TD-DFT gradient,  ECA, NRVS 
  Petra Pikulova         : Analytic Raman intensities                    
  Peter Pinski           : DLPNO-MP2, DLPNO-MP2 Gradient                 
  Shashank Vittal Rao    : ES-AILFT, MagRelax                            
  Christoph Reimann      : Effective Core Potentials                     
  Marius Retegan         : Local ZFS, SOC                                
  Christoph Riplinger    : Optimizer, TS searches, QM/MM, DLPNO-CCSD(T), (RO)-DLPNO pert. Triples 
  Michael Roemelt        : Original ROCIS implementation, recursive CI coupling coefficients
  Masaaki Saitow         : Open-shell DLPNO-CCSD energy and density      
  Barbara Sandhoefer     : DKH picture change effects                    
  Yorick L. A. Schmerwitz: GMF and freeze-and-release deltaSCF, NEB S-IDPP initial path                    
  Kantharuban Sivalingam : CASSCF convergence/infrastructure, NEVPT2, NEVPT3, NEVPT4(SD), FIC-MRCI and CEPA variants
  Bernardo de Souza      : ESD, SOC TD-DFT                               
  Georgi L. Stoychev     : AutoAux, RI-MP2 NMR, DLPNO-MP2 response, X2C  
  Van Anh Tran           : RI-MP2 g-tensors                              
  Willem Van den Heuvel  : Paramagnetic NMR                              
  Zikuan Wang            : NOTCH, Electric field optimization            
  Frank Wennmohs         : Technical directorship and infrastructure     
  Hang Xu                : AUTO-CI-Response properties                   
                                                                         
[FACCTs GmbH]                                                            
  Markus Bursch, Nicolas Foglia, Miquel Garcia-Rates, Ingolf Harden, Hagen Neugebauer, Anastasios Papadopoulos, 
  Christoph Riplinger, Bernardo de Souza, Georgi L. Stoychev                                                    
                                                                 
  APM, various basis sets, CI-OPT, improved COSX, DLPNO-Multilevel,           
  DOCKER, DRACO, updates on ESD, Fragmentator, GOAT, IRC, LR-CPCM, L-BFGS, MBIS, meta-GGA TD-DFT gradient, ML-optimized integration grids, 
  MM, NACMEs, nearIR, NEB, NEB-TS, NL-DFT gradient (VV10), 2- and 3-layer-ONIOM, interface openCOSMO-RS, QMMM,   
  Crystal-QMMM, RESP, rigid body optimization, SF, symmetry and pop. for TD-DFT, various functionals, SOLVATOR                                   
                                                                         
[Other institutions]                                                     
  V. Asgeirsson          : NEB                                           
  Christoph Bannwarth    : sTDA-DFT, sTD-DFT, PBEh-3c, B97-3c, D3        
  Giovanni Bistoni       : ETS/NOCV, ADLD/ADEX, COVALED                  
  Martin Brehm           : Molecular dynamics                            
  Ronald Cardenas        : ETS/NOCV                                      
  Martina Colucci        : COVALED                                       
  Sebastian Ehlert       : rSCAN, r2SCAN, r2SCAN-3c, D4, dhf basis sets  
  Marvin Friede          : D4 for Fr, Ra, Ac-Lr                          
  Lars Goerigk           : TD-DFT with DH, B97 family of functionals     
  Stefan Grimme          : VdW corrections, initial TS optimization, DFT functionals, gCP, sTDA/sTD-DF 
  Waldemar Hujo          : DFT-NL                                        
  H. Jonsson             : NEB                                           
  Holger Kruse           : gCP                                           
  Marcel Mueller         : wB97X-3c, vDZP basis set                      
  Hagen Neugebauer       : wr2SCAN, Native XTB                           
  Gianluca Regni         : ADLD/ADEX                                     
  Tobias Risthaus        : pre 6.0 range-separated hybrid DFT and stability analysis
  Lukas Wittmann         : regularized MP2, r2SCAN double-hybrids, wr2SCAN        
                                                                         
We gratefully acknowledge several colleagues who have allowed us to      
interface, adapt or use parts of their codes:                            
  Ed Valeev, F. Pavosevic, A. Kumar             : LibInt (2-el integral package), F12 methods 
  Garnet Chan, S. Sharma, J. Yang, R. Olivares  : DMRG                   
  Ulf Ekstrom                                   : XCFun DFT Library      
  Mihaly Kallay                                 : mrcc  (arbitrary order and MRCC methods)
  Frank Weinhold                                : gennbo (NPA and NBO analysis)           
  Simon Mueller                                 : openCOSMO-RS                            
  Christopher J. Cramer and Donald G. Truhlar   : smd solvation model                     
  S Lehtola, MJT Oliveira, MAL Marques          : LibXC Library                           
  Liviu Ungur et al                             : ANISO software                          


 Your calculation uses the libint2 library for the computation of 2-el integrals
 For citations please refer to: http://libint.valeyev.net

 Your ORCA version has been built with support for libXC version: 7.0.0
 For citations please refer to: https://libxc.gitlab.io

 This ORCA versions uses:
   CBLAS   interface :  Fast vector & matrix operations
   LAPACKE interface :  Fast linear algebra routines
   SCALAPACK package :  Parallel linear algebra routines
   Shared memory     :  Shared parallel matrices
   BLAS/LAPACK       :  OpenBLAS 0.3.29  USE64BITINT DYNAMIC_ARCH NO_AFFINITY Haswell SINGLE_THREADED
        Core in use  :  Haswell
   Copyright (c) 2011-2014, The OpenBLAS Project


  ***********************************
  * Starting time: Thu Aug 14 12:18:55 2025
  * Host name:     CHEMLAB02
  * Process ID:    1770416
  * Working dir.:  /home/vivek/mm-project/vivek/MP2/k/5
  ***********************************



***************************************
The coordinates will be read from file: /home/vivek/mm-project/vivek/xtb-goat/k/K_CONF/5.xyz
***************************************


================================================================================

----- Orbital basis set information -----
Your calculation utilizes the basis: 6-31G**
   H-He, Li-Ne : W. J. Hehre, R. Ditchfield and J.A. Pople, J. Chem. Phys. 56, 2257 (1972).
                 Note: He and Ne are unpublished basis sets taken from the Gaussian program.
                 Note: Li and B from J. D. Dill and J. A. Pople, J. Chem. Phys. 62, 2921 (1975).
   Na - Ar     : M. M. Francl, W. J. Pietro, W. J. Hehre, J. S. Binkley, M. S. Gordon, 
                 D. J. DeFrees and J. A. Pople, J. Chem. Phys. 77, 3654 (1982).
   K - Zn      : V. A. Rassolov, J. A. Pople, M. A. Ratner, and T. L. Windus, J. Chem. Phys. 109, 1223 (1998).

================================================================================
                                        WARNINGS
                       Please study these warnings very carefully!
================================================================================


WARNING: No MP2 level density has been requested!
         To calculate MP2 level properties use
         %mp2 Density relaxed end
         or
         %mp2 Density unrelaxed end

WARNING: Post HF methods need fully converged wavefunctions
  ===> : Setting SCFConvForced true
         You can overwrite this default with %scf ConvForced false 


================================================================================
                                       INPUT FILE
================================================================================
NAME = 5.inp
|  1> ! MP2 6-31G** 
|  2> 
|  3> * xyzfile 0 1 /home/vivek/mm-project/vivek/xtb-goat/k/K_CONF/5.xyz
|  4> 
|  5>                          ****END OF INPUT****
================================================================================

                       ****************************
                       * Single Point Calculation *
                       ****************************

---------------------------------
CARTESIAN COORDINATES (ANGSTROEM)
---------------------------------
  C    -13.881015    6.031952    1.432524
  C    -12.678707    6.794550    0.857356
  H    -15.347432    7.376572    0.993166
  H    -14.729288    7.546970    2.499453
  N    -15.010428    6.864886    1.802338
  C    -11.531885    5.857951    0.488592
  H    -12.995712    7.345947   -0.032433
  H    -12.331312    7.524448    1.594696
  C    -10.348568    6.629473   -0.093384
  H    -11.215852    5.309834    1.379683
  H    -11.890315    5.130949   -0.241753
  C     -9.131187    5.739683   -0.402424
  H    -10.651018    7.109408   -1.024800
  H    -10.034523    7.402039    0.610659
  C     -8.657318    5.056216    0.875305
  H     -7.920812    5.458291    2.588869
  N     -9.430397    4.796861   -1.460636
  O     -8.210777    5.925466    1.788695
  H    -14.236468    5.304206    0.697779
  H    -13.571173    5.483135    2.326398
  H    -10.084802    4.099815   -1.119265
  O     -8.666622    3.867176    1.057153
  H     -8.316657    6.390348   -0.743669
  H     -8.589985    4.297202   -1.731235

----------------------------
CARTESIAN COORDINATES (A.U.)
----------------------------
  NO LB      ZA    FRAG     MASS         X           Y           Z
   0 C     6.0000    0    12.011  -26.231317   11.398738    2.707077
   1 C     6.0000    0    12.011  -23.959285   12.839839    1.620168
   2 H     1.0000    0     1.008  -29.002444   13.939702    1.876812
   3 H     1.0000    0     1.008  -27.834320   14.261706    4.723282
   4 N     7.0000    0    14.007  -28.365598   12.972754    3.405925
   5 C     6.0000    0    12.011  -21.792105   11.069922    0.923305
   6 H     1.0000    0     1.008  -24.558337   13.881827   -0.061290
   7 H     1.0000    0     1.008  -23.302802   14.219146    3.013539
   8 C     6.0000    0    12.011  -19.555960   12.527889   -0.176469
   9 H     1.0000    0     1.008  -21.194888   10.034131    2.607224
  10 H     1.0000    0     1.008  -22.469438    9.696089   -0.456847
  11 C     6.0000    0    12.011  -17.255443   10.846428   -0.760471
  12 H     1.0000    0     1.008  -20.127508   13.434835   -1.936591
  13 H     1.0000    0     1.008  -18.962500   13.987827    1.153978
  14 C     6.0000    0    12.011  -16.359961    9.554864    1.654086
  15 H     1.0000    0     1.008  -14.968165   10.314675    4.892253
  16 N     7.0000    0    14.007  -17.820868    9.064754   -2.760202
  17 O     8.0000    0    15.999  -15.516120   11.197508    3.380144
  18 H     1.0000    0     1.008  -26.903026   10.023496    1.318612
  19 H     1.0000    0     1.008  -25.645800   10.361623    4.396256
  20 H     1.0000    0     1.008  -19.057514    7.747528   -2.115104
  21 O     8.0000    0    15.999  -16.377543    7.307903    1.997730
  22 H     1.0000    0     1.008  -15.716205   12.076008   -1.405331
  23 H     1.0000    0     1.008  -16.232720    8.120535   -3.271559

--------------------------------
INTERNAL COORDINATES (ANGSTROEM)
--------------------------------
 C      0   0   0     0.000000000000     0.00000000     0.00000000
 C      1   0   0     1.535551106835     0.00000000     0.00000000
 H      1   2   0     2.037502579069    98.91733533     0.00000000
 H      3   1   2     1.637082404988    66.32970938   266.22720879
 N      3   1   2     1.014965291820    41.96232562   232.26420625
 C      2   1   3     1.525911987221   111.97203251   204.16610606
 H      2   1   3     1.093734737545   109.15693557   325.33931148
 H      2   1   3     1.094123141298   109.11619121    82.78853578
 C      6   2   1     1.527802660425   111.35840281   179.49479025
 H      6   2   1     1.092864822397   109.15542385   300.97388859
 H      6   2   1     1.091057309185   108.89645762    58.48881372
 C      9   6   2     1.539236631576   113.39881075   176.47862476
 H      9   6   2     1.090573283068   109.43674332   296.60746138
 H      9   6   2     1.091402241796   109.54836725    55.58833605
 C     12   9   6     1.524555095384   109.67683064   300.50145127
 H     15  12   9     1.907985455863   141.09675496   295.96196993
 N     12   9   6     1.448534242824   111.07324647    65.64344147
 O     16  15  12     0.970881249872    41.05529407   359.68550980
 H      1   2   3     1.093531379722   109.47181341    96.90830718
 H      1   2   3     1.093716147055   109.48241195   214.99390535
 H     17  12   9     1.015210888514   109.53580828   289.99174970
 O     15  12   9     1.202902045425   124.57155242   116.32876619
 H     12   9   6     1.096937745554   107.86935617   184.05247156
 H     17  12   9     1.014482781429   110.14019845   173.06710978

---------------------------
INTERNAL COORDINATES (A.U.)
---------------------------
 C      0   0   0     0.000000000000     0.00000000     0.00000000
 C      1   0   0     2.901771056558     0.00000000     0.00000000
 H      1   2   0     3.850321871599    98.91733533     0.00000000
 H      3   1   2     3.093637404089    66.32970938   266.22720879
 N      3   1   2     1.918006436976    41.96232562   232.26420625
 C      2   1   3     2.883555760315   111.97203251   204.16610606
 H      2   1   3     2.066859117117   109.15693557   325.33931148
 H      2   1   3     2.067593093839   109.11619121    82.78853578
 C      6   2   1     2.887128614880   111.35840281   179.49479025
 H      6   2   1     2.065215215726   109.15542385   300.97388859
 H      6   2   1     2.061799510773   108.89645762    58.48881372
 C      9   6   2     2.908735688978   113.39881075   176.47862476
 H      9   6   2     2.060884833969   109.43674332   296.60746138
 H      9   6   2     2.062451338942   109.54836725    55.58833605
 C     12   9   6     2.880991606350   109.67683064   300.50145127
 H     15  12   9     3.605569979086   141.09675496   295.96196993
 N     12   9   6     2.737333014544   111.07324647    65.64344147
 O     16  15  12     1.834699670817    41.05529407   359.68550980
 H      1   2   3     2.066474826525   109.47181341    96.90830718
 H      1   2   3     2.066823986181   109.48241195   214.99390535
 H     17  12   9     1.918470547466   109.53580828   289.99174970
 O     15  12   9     2.273155431787   124.57155242   116.32876619
 H     12   9   6     2.072911925057   107.86935617   184.05247156
 H     17  12   9     1.917094624479   110.14019845   173.06710978

---------------------
BASIS SET INFORMATION
---------------------
There are 4 groups of distinct atoms

 Group   1 Type C   : 10s4p1d contracted to 3s2p1d pattern {631/31/1}
 Group   2 Type H   : 4s1p contracted to 2s1p pattern {31/1}
 Group   3 Type N   : 10s4p1d contracted to 3s2p1d pattern {631/31/1}
 Group   4 Type O   : 10s4p1d contracted to 3s2p1d pattern {631/31/1}

Atom   0C    basis set group =>   1
Atom   1C    basis set group =>   1
Atom   2H    basis set group =>   2
Atom   3H    basis set group =>   2
Atom   4N    basis set group =>   3
Atom   5C    basis set group =>   1
Atom   6H    basis set group =>   2
Atom   7H    basis set group =>   2
Atom   8C    basis set group =>   1
Atom   9H    basis set group =>   2
Atom  10H    basis set group =>   2
Atom  11C    basis set group =>   1
Atom  12H    basis set group =>   2
Atom  13H    basis set group =>   2
Atom  14C    basis set group =>   1
Atom  15H    basis set group =>   2
Atom  16N    basis set group =>   3
Atom  17O    basis set group =>   4
Atom  18H    basis set group =>   2
Atom  19H    basis set group =>   2
Atom  20H    basis set group =>   2
Atom  21O    basis set group =>   4
Atom  22H    basis set group =>   2
Atom  23H    basis set group =>   2
------------------------------------------------------------------------------
                             ORCA STARTUP CALCULATIONS
------------------------------------------------------------------------------
------------------------------------------------------------------------------
                   ___                                                        
                  /   \      - P O W E R E D   B Y -                         
                 /     \                                                     
                 |  |  |   _    _      __       _____    __    __             
                 |  |  |  | |  | |    /  \     |  _  \  |  |  /  |          
                  \  \/   | |  | |   /    \    | | | |  |  | /  /          
                 / \  \   | |__| |  /  /\  \   | |_| |  |  |/  /          
                |  |  |   |  __  | /  /__\  \  |    /   |      \           
                |  |  |   | |  | | |   __   |  |    \   |  |\   \          
                \     /   | |  | | |  |  |  |  | |\  \  |  | \   \       
                 \___/    |_|  |_| |__|  |__|  |_| \__\ |__|  \__/        
                                                                              
                      - O R C A' S   B I G   F R I E N D -                    
                                      &                                       
                       - I N T E G R A L  F E E D E R -                       
                                                                              
 v1 FN, 2020, v2 2021, v3 2022-2024                                           
------------------------------------------------------------------------------


----------------------
SHARK INTEGRAL PACKAGE
----------------------

Number of atoms                             ...     24
Number of basis functions                   ...    210
Number of shells                            ...    102
Maximum angular momentum                    ...      2
Integral batch strategy                     ... SHARK/LIBINT Hybrid
RI-J (if used) integral strategy            ... SPLIT-RIJ (Revised 2003 algorithm where possible)
Printlevel                                  ...      1
Contraction scheme used                     ... SEGMENTED contraction
Prescreening option                         ... SCHWARTZ
   Thresh                                   ... 1.000e-10
   Tcut                                     ... 1.000e-11
   Tpresel                                  ... 1.000e-11 
Coulomb Range Separation                    ... NOT USED
Exchange Range Separation                   ... NOT USED
Multipole approximations                    ... NOT USED
Finite Nucleus Model                        ... NOT USED
CABS basis                                  ... NOT available
Auxiliary Coulomb fitting basis             ... NOT available
Auxiliary J/K fitting basis                 ... NOT available
Auxiliary Correlation fitting basis         ... NOT available
Auxiliary 'external' fitting basis          ... NOT available

Checking pre-screening integrals            ... done (  0.0 sec) Dimension = 102
   => SHARK Basis and OBASIS are compatible. Storing Pre-screening
Shell pair information
Shell pair cut-off parameter TPreSel        ...   1.0e-11
Total number of shell pairs                 ...      5253
Shell pairs after pre-screening             ...      4301
Total number of primitive shell pairs       ...     24562
Primitive shell pairs kept                  ...     13069
          la=0 lb=0:   1431 shell pairs
          la=1 lb=0:   1610 shell pairs
          la=1 lb=1:    483 shell pairs
          la=2 lb=0:    465 shell pairs
          la=2 lb=1:    269 shell pairs
          la=2 lb=2:     43 shell pairs

Checking whether 4 symmetric matrices of dimension 210 fit in memory
:Max Core in MB      =   4096.00
 MB in use           =      6.90
 MB left             =   4089.10
 MB needed           =      0.68
 Data fit in memory  = YES
Calculating Nuclear repulsion               ... done (  0.0 sec) ENN=    556.215653338976 Eh

Diagonalization of the overlap matrix:
Smallest eigenvalue                        ... 2.689e-03
Time for diagonalization                   ...    0.002 sec
Threshold for overlap eigenvalues          ... 1.000e-07
Number of eigenvalues below threshold      ... 0
Time for construction of square roots      ...    0.001 sec
Total time needed                          ...    0.003 sec

-------------------
DFT GRID GENERATION
-------------------

General Integration Accuracy     IntAcc      ... 4.388
Radial Grid Type                 RadialGrid  ... OptM3 with GC (2021)
Angular Grid (max. ang.)         AngularGrid ... 4 (Lebedev-302)
Angular grid pruning method      GridPruning ... 4 (adaptive)
Weight generation scheme         WeightScheme... mBecke (2022)
Basis function cutoff            BFCut       ... 1.0000e-10
Integration weight cutoff        WCut        ... 1.0000e-14
Partially contracted basis set               ... off
Rotationally invariant grid construction     ... off
Angular grids for H and He will be reduced by one unit

Total number of grid points                  ...   104959
Total number of batches                      ...     1653
Average number of points per batch           ...       63
Average number of grid points per atom       ...     4373
Grids setup in   0.4 sec
Initializing property integral containers    ... done (  0.0 sec)

SHARK setup successfully completed in   0.5 seconds

Maximum memory used throughout the entire STARTUP-calculation: 41.7 MB
-------------------------------------------------------------------------------
                                 ORCA GUESS
                   Start orbitals & Density for SCF / CASSCF
-------------------------------------------------------------------------------

------------
SCF SETTINGS
------------
Hamiltonian:
 Ab initio Hamiltonian  Method          .... Hartree-Fock(GTOs)


General Settings:
 Integral files         IntName         .... 5
 Hartree-Fock type      HFTyp           .... RHF
 Total Charge           Charge          ....    0
 Multiplicity           Mult            ....    1
 Number of Electrons    NEL             ....   80
 Basis Dimension        Dim             ....  210
 Nuclear Repulsion      ENuc            ....    556.2156533390 Eh

Convergence Acceleration:
 AO-DIIS                CNVDIIS         .... on
   Start iteration      DIISMaxIt       ....    12
   Startup error        DIISStart       ....  0.200000
   # of expansion vecs  DIISMaxEq       ....     5
   Bias factor          DIISBfac        ....   1.050
   Max. coefficient     DIISMaxC        ....  10.000
 MO-DIIS                CNVKDIIS        .... off
 Trust-Rad. Augm. Hess. CNVTRAH         .... auto
   Auto Start mean grad. ratio tolernc. ....  1.125000
   Auto Start start iteration           ....    50
   Auto Start num. interpolation iter.  ....    10
   Max. Number of Micro iterations      ....    24
   Max. Number of Macro iterations      .... Maxiter - #DIIS iter
   Number of Davidson start vectors     ....     2
   Converg. threshold    (grad. norm)   ....   5.000e-05
   Grad. Scal. Fac. for Micro threshold ....   0.100
   Minimum threshold for Micro iter.    ....   1.000e-02
   NR start threshold (gradient norm)   ....   1.000e-04
   Initial trust radius                 ....   0.400
   Minimum AH scaling param. (alpha)    ....   1.000
   Maximum AH scaling param. (alpha)    .... 1000.000
   Quad. conv. algorithm                .... NR
   White noise on init. David. guess    .... on
   Maximum white noise                  ....   0.010
   Pseudo random numbers                .... off
   Inactive MOs                         .... canonical
   Orbital update algorithm             .... Taylor
   Preconditioner                       .... Diag
   Full preconditioner red. dimension   ....   250
 SOSCF                 CNVSOSCF           .... on
   Start iteration     SOSCFMaxIt         ....   150
   Startup grad/error  SOSCFStart         ....  0.003300
   Hessian update      SOSCFHessUp        .... L-BFGS
   Autom. constraints  SOSCFAutoConstrain .... off
 Level Shifting         CNVShift        .... on
   Level shift para.    LevelShift      ....    0.2500
   Turn off err/grad.   ShiftErr        ....    0.0010
 Zerner damping         CNVZerner       .... off
 Static damping         CNVDamp         .... on
   Fraction old density DampFac         ....    0.7000
   Max. Damping (<1)    DampMax         ....    0.9800
   Min. Damping (>=0)   DampMin         ....    0.0000
   Turn off err/grad.   DampErr         ....    0.1000

SCF Procedure:
 Maximum # iterations   MaxIter         ....   125
 SCF integral mode      SCFMode         .... Direct
   Integral package                     .... SHARK and LIBINT hybrid scheme
 Reset frequency        DirectResetFreq ....    20
 Integral Threshold     Thresh          ....  1.000e-10 Eh
 Primitive CutOff       TCut            ....  1.000e-11 Eh

Convergence Tolerance:
 Convergence Check Mode ConvCheckMode   .... Total+1el-Energy
 Convergence forced     ConvForced      .... 1
 Energy Change          TolE            ....  1.000e-06 Eh
 1-El. energy change                    ....  1.000e-03 Eh
 Orbital Gradient       TolG            ....  5.000e-05
 Orbital Rotation angle TolX            ....  5.000e-05
 DIIS Error             TolErr          ....  1.000e-06

------------------------------
INITIAL GUESS: MODEL POTENTIAL
------------------------------
Loading Hartree-Fock densities                     ... done
Calculating cut-offs                               ... done
Initializing the effective Hamiltonian             ... done
Setting up the integral package (SHARK)            ... done
Starting the Coulomb interaction                   ... done (   0.1 sec)
Making the grid                                    ... done (   0.1 sec)
Mapping shells                                     ... done
Starting the XC term evaluation                    ... done (   0.0 sec)
Transforming the Hamiltonian                       ... done (   0.0 sec)
Diagonalizing the Hamiltonian                      ... done (   0.0 sec)
Back transforming the eigenvectors                 ... done (   0.0 sec)
Now organizing SCF variables                       ... done
                      ------------------
                      INITIAL GUESS DONE (   0.3 sec)
                      ------------------
             **** ENERGY FILE WAS UPDATED (5.en.tmp) ****
Finished Guess after   0.3 sec
Maximum memory used throughout the entire GUESS-calculation: 12.4 MB

-------------------------------------------------------------------------------------------
                                      ORCA LEAN-SCF
                              memory conserving SCF solver
-------------------------------------------------------------------------------------------

----------------------------------------D-I-I-S--------------------------------------------
Iteration    Energy (Eh)           Delta-E    RMSDP     MaxDP     DIISErr   Damp  Time(sec)
-------------------------------------------------------------------------------------------
               ***  Starting incremental Fock matrix formation  ***
    1    -493.5168115596835605     0.00e+00  2.41e-03  6.35e-02  2.64e-01  0.700   2.2
    2    -493.6986589531574054    -1.82e-01  1.82e-03  4.61e-02  1.66e-01  0.700   2.0
                               ***Turning on AO-DIIS***
    3    -493.8049951218921478    -1.06e-01  9.66e-04  2.21e-02  9.48e-02  0.700   2.0
    4    -493.8716957705875075    -6.67e-02  2.16e-03  4.70e-02  6.42e-02  0.000   1.9
    5    -494.0190163556295602    -1.47e-01  2.46e-04  6.45e-03  6.09e-03  0.000   2.0
    6    -494.0195504157744608    -5.34e-04  1.23e-04  3.18e-03  3.39e-03  0.000   1.8
                              *** Initializing SOSCF ***
---------------------------------------S-O-S-C-F--------------------------------------
Iteration    Energy (Eh)           Delta-E    RMSDP     MaxDP     MaxGrad    Time(sec)
--------------------------------------------------------------------------------------
    7    -494.0196629434275337    -1.13e-04  6.69e-05  2.29e-03  2.38e-03     1.8
               *** Restarting incremental Fock matrix formation ***
    8    -494.0196950677353698    -3.21e-05  3.42e-05  8.12e-04  5.10e-04     2.2
    9    -494.0197023011015744    -7.23e-06  3.53e-05  1.25e-03  3.09e-04     1.6
   10    -494.0197048973578831    -2.60e-06  6.55e-06  2.62e-04  9.49e-05     1.6
   11    -494.0197051092728771    -2.12e-07  2.38e-06  8.07e-05  3.26e-05     1.4
                 **** Energy Check signals convergence ****

               *****************************************************
               *                     SUCCESS                       *
               *           SCF CONVERGED AFTER  11 CYCLES          *
               *****************************************************

             **** ENERGY FILE WAS UPDATED (5.en.tmp) ****

----------------
TOTAL SCF ENERGY
----------------

Total Energy       :       -494.01970514515790 Eh          -13442.95960 eV

Components:
Nuclear Repulsion  :        556.21565333897649 Eh           15135.39740 eV
Electronic Energy  :      -1050.23535848413439 Eh          -28578.35700 eV
One Electron Energy:      -1777.34404263330794 Eh          -48363.99018 eV
Two Electron Energy:        727.10868414917354 Eh           19785.63318 eV

Virial components:
Potential Energy   :       -987.54455995188937 Eh          -26872.45365 eV
Kinetic Energy     :        493.52485480673147 Eh           13429.49404 eV
Virial Ratio       :          2.00100268574846

---------------
SCF CONVERGENCE
---------------

  Last Energy change         ...    2.1191e-07  Tolerance :   1.0000e-06
  Last MAX-Density change    ...    8.0728e-05  Tolerance :   1.0000e-05
  Last RMS-Density change    ...    2.3753e-06  Tolerance :   1.0000e-06
  Last DIIS Error            ...    2.3835e-03  Tolerance :   1.0000e-06
  Last Orbital Gradient      ...    3.2604e-05  Tolerance :   5.0000e-05
  Last Orbital Rotation      ...    3.0299e-05  Tolerance :   5.0000e-05


----------------
ORBITAL ENERGIES
----------------

  NO   OCC          E(Eh)            E(eV) 
   0   2.0000     -20.619870      -561.0952 
   1   2.0000     -20.555293      -559.3380 
   2   2.0000     -15.546760      -423.0488 
   3   2.0000     -15.536611      -422.7727 
   4   2.0000     -11.383177      -309.7520 
   5   2.0000     -11.273817      -306.7762 
   6   2.0000     -11.244241      -305.9714 
   7   2.0000     -11.229090      -305.5591 
   8   2.0000     -11.224644      -305.4381 
   9   2.0000     -11.219825      -305.3070 
  10   2.0000      -1.470413       -40.0120 
  11   2.0000      -1.363972       -37.1156 
  12   2.0000      -1.197677       -32.5904 
  13   2.0000      -1.177959       -32.0539 
  14   2.0000      -1.076036       -29.2804 
  15   2.0000      -1.001573       -27.2542 
  16   2.0000      -0.927153       -25.2291 
  17   2.0000      -0.854740       -23.2586 
  18   2.0000      -0.810602       -22.0576 
  19   2.0000      -0.785218       -21.3669 
  20   2.0000      -0.703047       -19.1309 
  21   2.0000      -0.702357       -19.1121 
  22   2.0000      -0.681882       -18.5550 
  23   2.0000      -0.673724       -18.3330 
  24   2.0000      -0.644725       -17.5439 
  25   2.0000      -0.615684       -16.7536 
  26   2.0000      -0.600086       -16.3292 
  27   2.0000      -0.594371       -16.1736 
  28   2.0000      -0.572825       -15.5874 
  29   2.0000      -0.562828       -15.3153 
  30   2.0000      -0.548727       -14.9316 
  31   2.0000      -0.521860       -14.2005 
  32   2.0000      -0.499078       -13.5806 
  33   2.0000      -0.486504       -13.2384 
  34   2.0000      -0.480679       -13.0799 
  35   2.0000      -0.475990       -12.9524 
  36   2.0000      -0.472292       -12.8517 
  37   2.0000      -0.449560       -12.2332 
  38   2.0000      -0.401951       -10.9377 
  39   2.0000      -0.376495       -10.2449 
  40   0.0000       0.183218         4.9856 
  41   0.0000       0.214742         5.8434 
  42   0.0000       0.221805         6.0356 
  43   0.0000       0.229606         6.2479 
  44   0.0000       0.252451         6.8695 
  45   0.0000       0.259873         7.0715 
  46   0.0000       0.267457         7.2779 
  47   0.0000       0.290302         7.8995 
  48   0.0000       0.310504         8.4492 
  49   0.0000       0.320490         8.7210 
  50   0.0000       0.337984         9.1970 
*Only the first 10 virtual orbitals were printed.

                    ********************************
                    * MULLIKEN POPULATION ANALYSIS *
                    ********************************

-----------------------
MULLIKEN ATOMIC CHARGES
-----------------------
   0 C :   -0.022438
   1 C :   -0.223348
   2 H :    0.258896
   3 H :    0.258282
   4 N :   -0.698570
   5 C :   -0.243565
   6 H :    0.104842
   7 H :    0.102470
   8 C :   -0.207874
   9 H :    0.118292
  10 H :    0.120508
  11 C :   -0.047260
  12 H :    0.140869
  13 H :    0.133841
  14 C :    0.787463
  15 H :    0.372207
  16 N :   -0.677385
  17 O :   -0.637322
  18 H :    0.115938
  19 H :    0.115409
  20 H :    0.282682
  21 O :   -0.589085
  22 H :    0.158190
  23 H :    0.276959
Sum of atomic charges:   -0.0000000

--------------------------------
MULLIKEN REDUCED ORBITAL CHARGES
--------------------------------
  0 C s       :     3.190769  s :     3.190769
      pz      :     1.034926  p :     2.765837
      px      :     0.821039
      py      :     0.909872
      dz2     :     0.007628  d :     0.065833
      dxz     :     0.011969
      dyz     :     0.016084
      dx2y2   :     0.011518
      dxy     :     0.018633

  1 C s       :     3.239657  s :     3.239657
      pz      :     1.025455  p :     2.935291
      px      :     0.928329
      py      :     0.981508
      dz2     :     0.006080  d :     0.048400
      dxz     :     0.008319
      dyz     :     0.015036
      dx2y2   :     0.005424
      dxy     :     0.013541

  2 H s       :     0.714977  s :     0.714977
      pz      :     0.011107  p :     0.026126
      px      :     0.007717
      py      :     0.007303

  3 H s       :     0.715594  s :     0.715594
      pz      :     0.010784  p :     0.026123
      px      :     0.005892
      py      :     0.009448

  4 N s       :     3.606177  s :     3.606177
      pz      :     1.248818  p :     4.057641
      px      :     1.482034
      py      :     1.326789
      dz2     :     0.003523  d :     0.034752
      dxz     :     0.004928
      dyz     :     0.013638
      dx2y2   :     0.005372
      dxy     :     0.007291

  5 C s       :     3.235865  s :     3.235865
      pz      :     1.033522  p :     2.958650
      px      :     0.935286
      py      :     0.989841
      dz2     :     0.006128  d :     0.049050
      dxz     :     0.008618
      dyz     :     0.015036
      dx2y2   :     0.005655
      dxy     :     0.013612

  6 H s       :     0.882810  s :     0.882810
      pz      :     0.006500  p :     0.012348
      px      :     0.002281
      py      :     0.003567

  7 H s       :     0.885201  s :     0.885201
      pz      :     0.004928  p :     0.012329
      px      :     0.002444
      py      :     0.004957

  8 C s       :     3.234888  s :     3.234888
      pz      :     1.062270  p :     2.924679
      px      :     0.898024
      py      :     0.964384
      dz2     :     0.007403  d :     0.048308
      dxz     :     0.007853
      dyz     :     0.013387
      dx2y2   :     0.005812
      dxy     :     0.013853

  9 H s       :     0.869319  s :     0.869319
      pz      :     0.006539  p :     0.012389
      px      :     0.002220
      py      :     0.003630

 10 H s       :     0.867070  s :     0.867070
      pz      :     0.005022  p :     0.012422
      px      :     0.002515
      py      :     0.004885

 11 C s       :     3.213115  s :     3.213115
      pz      :     0.804195  p :     2.763638
      px      :     1.044022
      py      :     0.915421
      dz2     :     0.016812  d :     0.070507
      dxz     :     0.011148
      dyz     :     0.019631
      dx2y2   :     0.007233
      dxy     :     0.015684

 12 H s       :     0.846649  s :     0.846649
      pz      :     0.007285  p :     0.012481
      px      :     0.002196
      py      :     0.003000

 13 H s       :     0.853657  s :     0.853657
      pz      :     0.004855  p :     0.012502
      px      :     0.002280
      py      :     0.005367

 14 C s       :     2.952046  s :     2.952046
      pz      :     0.762454  p :     2.114680
      px      :     0.635661
      py      :     0.716566
      dz2     :     0.021106  d :     0.145811
      dxz     :     0.010118
      dyz     :     0.057205
      dx2y2   :     0.021759
      dxy     :     0.035622

 15 H s       :     0.586288  s :     0.586288
      pz      :     0.020559  p :     0.041504
      px      :     0.010276
      py      :     0.010670

 16 N s       :     3.600680  s :     3.600680
      pz      :     1.498946  p :     4.042104
      px      :     1.273033
      py      :     1.270125
      dz2     :     0.006424  d :     0.034602
      dxz     :     0.004068
      dyz     :     0.009026
      dx2y2   :     0.002427
      dxy     :     0.012656

 17 O s       :     3.836787  s :     3.836787
      pz      :     1.357767  p :     4.775223
      px      :     1.764282
      py      :     1.653174
      dz2     :     0.002016  d :     0.025312
      dxz     :     0.001666
      dyz     :     0.012405
      dx2y2   :     0.003737
      dxy     :     0.005489

 18 H s       :     0.872038  s :     0.872038
      pz      :     0.004940  p :     0.012024
      px      :     0.002137
      py      :     0.004947

 19 H s       :     0.872575  s :     0.872575
      pz      :     0.006547  p :     0.012016
      px      :     0.001963
      py      :     0.003505

 20 H s       :     0.691164  s :     0.691164
      pz      :     0.006426  p :     0.026154
      px      :     0.010041
      py      :     0.009686

 21 O s       :     3.874914  s :     3.874914
      pz      :     1.774798  p :     4.681422
      px      :     1.529203
      py      :     1.377421
      dz2     :     0.003619  d :     0.032749
      dxz     :     0.000337
      dyz     :     0.007830
      dx2y2   :     0.008773
      dxy     :     0.012190

 22 H s       :     0.829618  s :     0.829618
      pz      :     0.002080  p :     0.012192
      px      :     0.005780
      py      :     0.004332

 23 H s       :     0.696967  s :     0.696967
      pz      :     0.007306  p :     0.026073
      px      :     0.011749
      py      :     0.007018



                     *******************************
                     * LOEWDIN POPULATION ANALYSIS *
                     *******************************

----------------------
LOEWDIN ATOMIC CHARGES
----------------------
   0 C :   -0.043319
   1 C :   -0.128108
   2 H :    0.122651
   3 H :    0.122337
   4 N :   -0.298400
   5 C :   -0.119732
   6 H :    0.056545
   7 H :    0.055378
   8 C :   -0.103724
   9 H :    0.061095
  10 H :    0.062791
  11 C :   -0.027791
  12 H :    0.073894
  13 H :    0.069275
  14 C :    0.225452
  15 H :    0.201156
  16 N :   -0.275982
  17 O :   -0.210994
  18 H :    0.060371
  19 H :    0.060043
  20 H :    0.132483
  21 O :   -0.310529
  22 H :    0.082862
  23 H :    0.132247

-------------------------------
LOEWDIN REDUCED ORBITAL CHARGES
-------------------------------
  0 C s       :     2.879538  s :     2.879538
      pz      :     1.065695  p :     3.036176
      px      :     0.964633
      py      :     1.005848
      dz2     :     0.013794  d :     0.127604
      dxz     :     0.023428
      dyz     :     0.028460
      dx2y2   :     0.024560
      dxy     :     0.037364

  1 C s       :     2.899836  s :     2.899836
      pz      :     1.062382  p :     3.136377
      px      :     1.023977
      py      :     1.050018
      dz2     :     0.011183  d :     0.091895
      dxz     :     0.016072
      dyz     :     0.026369
      dx2y2   :     0.011472
      dxy     :     0.026799

  2 H s       :     0.796314  s :     0.796314
      pz      :     0.033856  p :     0.081035
      px      :     0.024047
      py      :     0.023131

  3 H s       :     0.796658  s :     0.796658
      pz      :     0.031091  p :     0.081005
      px      :     0.020233
      py      :     0.029682

  4 N s       :     3.190606  s :     3.190606
      pz      :     1.243064  p :     4.046463
      px      :     1.471388
      py      :     1.332011
      dz2     :     0.006735  d :     0.061331
      dxz     :     0.009749
      dyz     :     0.022560
      dx2y2   :     0.009358
      dxy     :     0.012929

  5 C s       :     2.886800  s :     2.886800
      pz      :     1.063462  p :     3.140294
      px      :     1.022594
      py      :     1.054238
      dz2     :     0.011246  d :     0.092638
      dxz     :     0.016602
      dyz     :     0.026102
      dx2y2   :     0.011987
      dxy     :     0.026701

  6 H s       :     0.904451  s :     0.904451
      pz      :     0.019188  p :     0.039004
      px      :     0.008166
      py      :     0.011650

  7 H s       :     0.905729  s :     0.905729
      pz      :     0.015040  p :     0.038893
      px      :     0.008506
      py      :     0.015347

  8 C s       :     2.891432  s :     2.891432
      pz      :     1.076330  p :     3.120689
      px      :     1.003587
      py      :     1.040772
      dz2     :     0.013392  d :     0.091604
      dxz     :     0.015254
      dyz     :     0.022816
      dx2y2   :     0.012568
      dxy     :     0.027574

  9 H s       :     0.899240  s :     0.899240
      pz      :     0.019663  p :     0.039666
      px      :     0.008223
      py      :     0.011780

 10 H s       :     0.897333  s :     0.897333
      pz      :     0.015457  p :     0.039876
      px      :     0.009082
      py      :     0.015337

 11 C s       :     2.869812  s :     2.869812
      pz      :     0.959516  p :     3.016729
      px      :     1.058247
      py      :     0.998967
      dz2     :     0.034914  d :     0.141249
      dxz     :     0.022165
      dyz     :     0.040176
      dx2y2   :     0.013989
      dxy     :     0.030005

 12 H s       :     0.885887  s :     0.885887
      pz      :     0.021700  p :     0.040219
      px      :     0.008016
      py      :     0.010503

 13 H s       :     0.890507  s :     0.890507
      pz      :     0.015096  p :     0.040217
      px      :     0.008038
      py      :     0.017084

 14 C s       :     2.850886  s :     2.850886
      pz      :     0.912199  p :     2.606674
      px      :     0.697187
      py      :     0.997287
      dz2     :     0.045326  d :     0.316988
      dxz     :     0.020495
      dyz     :     0.127449
      dx2y2   :     0.051532
      dxy     :     0.072186

 15 H s       :     0.678485  s :     0.678485
      pz      :     0.056139  p :     0.120359
      px      :     0.030754
      py      :     0.033466

 16 N s       :     3.185322  s :     3.185322
      pz      :     1.496491  p :     4.029472
      px      :     1.255470
      py      :     1.277511
      dz2     :     0.010881  d :     0.061187
      dxz     :     0.007850
      dyz     :     0.015780
      dx2y2   :     0.005178
      dxy     :     0.021499

 17 O s       :     3.457571  s :     3.457571
      pz      :     1.343527  p :     4.705445
      px      :     1.719105
      py      :     1.642813
      dz2     :     0.008459  d :     0.047978
      dxz     :     0.006006
      dyz     :     0.020810
      dx2y2   :     0.005384
      dxy     :     0.007320

 18 H s       :     0.901754  s :     0.901754
      pz      :     0.014921  p :     0.037875
      px      :     0.007486
      py      :     0.015468

 19 H s       :     0.902117  s :     0.902117
      pz      :     0.019722  p :     0.037839
      px      :     0.006572
      py      :     0.011545

 20 H s       :     0.785206  s :     0.785206
      pz      :     0.021940  p :     0.082311
      px      :     0.030116
      py      :     0.030254

 21 O s       :     3.547568  s :     3.547568
      pz      :     1.740606  p :     4.705718
      px      :     1.496631
      py      :     1.468481
      dz2     :     0.007544  d :     0.057243
      dxz     :     0.000428
      dyz     :     0.014485
      dx2y2   :     0.020701
      dxy     :     0.014085

 22 H s       :     0.877747  s :     0.877747
      pz      :     0.007463  p :     0.039391
      px      :     0.017631
      py      :     0.014298

 23 H s       :     0.786194  s :     0.786194
      pz      :     0.023111  p :     0.081560
      px      :     0.036261
      py      :     0.022188



                      *****************************
                      * MAYER POPULATION ANALYSIS *
                      *****************************

  NA   - Mulliken gross atomic population
  ZA   - Total nuclear charge
  QA   - Mulliken gross atomic charge
  VA   - Mayer's total valence
  BVA  - Mayer's bonded valence
  FA   - Mayer's free valence

  ATOM       NA         ZA         QA         VA         BVA        FA
  0 C      6.0224     6.0000    -0.0224     3.8004     3.8004     0.0000
  1 C      6.2233     6.0000    -0.2233     3.7991     3.7991    -0.0000
  2 H      0.7411     1.0000     0.2589     0.9097     0.9097     0.0000
  3 H      0.7417     1.0000     0.2583     0.9100     0.9100     0.0000
  4 N      7.6986     7.0000    -0.6986     2.7569     2.7569    -0.0000
  5 C      6.2436     6.0000    -0.2436     3.8004     3.8004     0.0000
  6 H      0.8952     1.0000     0.1048     0.9524     0.9524     0.0000
  7 H      0.8975     1.0000     0.1025     0.9528     0.9528     0.0000
  8 C      6.2079     6.0000    -0.2079     3.7754     3.7754    -0.0000
  9 H      0.8817     1.0000     0.1183     0.9516     0.9516     0.0000
 10 H      0.8795     1.0000     0.1205     0.9477     0.9477    -0.0000
 11 C      6.0473     6.0000    -0.0473     3.7646     3.7646     0.0000
 12 H      0.8591     1.0000     0.1409     0.9492     0.9492     0.0000
 13 H      0.8662     1.0000     0.1338     0.9479     0.9479    -0.0000
 14 C      5.2125     6.0000     0.7875     3.6800     3.6800     0.0000
 15 H      0.6278     1.0000     0.3722     0.8719     0.8719    -0.0000
 16 N      7.6774     7.0000    -0.6774     2.7672     2.7672    -0.0000
 17 O      8.6373     8.0000    -0.6373     1.8172     1.8172     0.0000
 18 H      0.8841     1.0000     0.1159     0.9477     0.9477     0.0000
 19 H      0.8846     1.0000     0.1154     0.9476     0.9476     0.0000
 20 H      0.7173     1.0000     0.2827     0.9043     0.9043    -0.0000
 21 O      8.5891     8.0000    -0.5891     1.8944     1.8944    -0.0000
 22 H      0.8418     1.0000     0.1582     0.9407     0.9407     0.0000
 23 H      0.7230     1.0000     0.2770     0.9045     0.9045    -0.0000

  Mayer bond orders larger than 0.100000
B(  0-C ,  1-C ) :   0.9614 B(  0-C ,  4-N ) :   0.9462 B(  0-C , 18-H ) :   0.9733 
B(  0-C , 19-H ) :   0.9733 B(  1-C ,  5-C ) :   0.9694 B(  1-C ,  6-H ) :   0.9726 
B(  1-C ,  7-H ) :   0.9728 B(  2-H ,  4-N ) :   0.9151 B(  3-H ,  4-N ) :   0.9154 
B(  5-C ,  8-C ) :   0.9645 B(  5-C ,  9-H ) :   0.9678 B(  5-C , 10-H ) :   0.9698 
B(  8-C , 11-C ) :   0.9619 B(  8-C , 12-H ) :   0.9670 B(  8-C , 13-H ) :   0.9660 
B( 11-C , 14-C ) :   0.9157 B( 11-C , 16-N ) :   0.9905 B( 11-C , 22-H ) :   0.9602 
B( 14-C , 17-O ) :   0.9644 B( 14-C , 21-O ) :   1.8245 B( 15-H , 17-O ) :   0.8399 
B( 16-N , 20-H ) :   0.8982 B( 16-N , 23-H ) :   0.9083 

-------
TIMINGS
-------

Total SCF time: 0 days 0 hours 0 min 21 sec 

Total time                  ....      21.649 sec
Sum of individual times     ....      20.369 sec  ( 94.1%)

SCF preparation             ....       0.017 sec  (  0.1%)
Fock matrix formation       ....      20.284 sec  ( 93.7%)
  Startup                   ....       0.001 sec  (  0.0% of F)
  Coulomb+Exchange Fock     ....      21.554 sec  (106.3% of F)
Diagonalization             ....       0.000 sec  (  0.0%)
Density matrix formation    ....       0.005 sec  (  0.0%)
Total Energy calculation    ....       0.001 sec  (  0.0%)
Population analysis         ....       0.003 sec  (  0.0%)
Orbital Transformation      ....       0.007 sec  (  0.0%)
Orbital Orthonormalization  ....       0.000 sec  (  0.0%)
DIIS solution               ....       0.038 sec  (  0.2%)
SOSCF solution              ....       0.013 sec  (  0.1%)
Finished LeanSCF after  21.7 sec

Maximum memory used throughout the entire LEANSCF-calculation: 16.0 MB

------------------------------------------------------------------------------
                                ORCA  MP2 
------------------------------------------------------------------------------

Freezing NCore=20 chemical core electrons

----------
MP2 ENERGY (disk based algorithm)
----------

Dimension of the basis                      ...  210
Memory devoted to MP2                       ... 4096 MB   
Data format for buffers                     ... DOUBLE
Compression type for matrix containers      ... UNCOMPRESSED

-------------------------
SHARK HALF TRANSFORMATION (Exchange order)
-------------------------

Number of basis functions                   ...    210
Number of operators                         ...      1
   Operator  0:   10-  39 (p-index in (p*|q*))
   Operator  0:   10-  39 (q-index in (p*|q*)
Integral generator used                     ... SHARK
Contraction scheme used                     ... SEGMENTED CONTRACTION
MaxCore in resort                           ...   4096 MB

Half transformed integrals for op=   0      ... 5.SHARK_MNPQ0.tmp
Resorted half transformed integrals         ... 5.KAO_aa.tmp

Half trafo (segmented) done. Total time = 14.1 sec. integrals= 12.5 sec trafo=  1.5 sec

----------------------
SHARK INTEGRAL SORTING (Exchange)
----------------------

Input container                             ... 5.SHARK_MNPQ0.tmp
Output container                            ... 5.KAO_aa.tmp
Range of AO-indices                         ...    0 -  209
Range of bra indices i                      ...   10 -   39
Range of ket indices j                      ...   10 -   39
Symmetric i,j range                         ... YES
Number of (i,j) pairs generated             ...  465
Max Core memory in MB                       ...   4096

Available core memory in MB                 ...   4085.29
MB needed for one item                      ...      0.34
Fixed MB needed                             ...      0.00
Number of items                             ...       465
Number of batches                           ...         1
Items treated per batch                     ...       465
Batch   0                                   ...      0-   464 (   465)
   => Closing output file and leaving
done (  0.2 sec)

SHARK half integral transformation done. Total time = 14.4 sec.


Finished integral transformation - now doing MP2 part

OPERATOR COMBINATION   0   0: ij=( 10.. 39, 10.. 39)
  Internal MO  12
  Internal MO  15
  Internal MO  18
  Internal MO  21
  Internal MO  24
  Internal MO  27
  Internal MO  30
  Internal MO  33
  Internal MO  36
  Internal MO  39
-----------------------------------------------
 MP2 CORRELATION ENERGY   :     -1.531739334 Eh
-----------------------------------------------


-------
TIMINGS
-------
Total time                :   14.600 sec
Integral trafo            :   14.360 sec ( 98.4%)
K(i,j)                    :    0.197 sec (  1.4%)
T(i,j)                    :    0.006 sec (  0.0%)

---------------------------------------
MP2 TOTAL ENERGY:     -495.551444479 Eh
---------------------------------------

Maximum memory used throughout the entire MP2-calculation: 168.5 MB

-------------------------   --------------------
FINAL SINGLE POINT ENERGY      -495.551444478788
-------------------------   --------------------


------------------------------------------------------------------------------
                              ORCA PROPERTY CALCULATIONS
------------------------------------------------------------------------------

GBWName                                 ... 5.gbw
Number of atoms                         ...     24
Number of basis functions               ...    210
Max core memory                         ...   4096 MB

Electric properties:
Dipole moment                           ... YES
Quadrupole moment                       ...  NO
Static polarizability (Dipole/Dipole)   ...  NO
Static polarizability (Dipole/Quad.)    ...  NO
Static polarizability (Quad./Quad.)     ...  NO
Static polarizability (Velocity)        ...  NO
Static hyperpolarizability              ...  NO

Atomic electric properties:
Dipole moment                           ...  NO
Quadrupole moment                       ...  NO
Static polarizability                   ...  NO

Choice of electric origin               ... Center of mass
Position of electric origin             ...   -20.308158    10.860840     1.242331

General magnetic properties:
Magnetizability                         ...  NO

EPR properties:
g-Tensor (aka g-matrix)                 ...  NO
Zero-Field splitting spin-orbit         ...  NO
Zero-field splitting spin-spin          ...  NO
Hyperfine couplings                     ...  NO (   0 nuclei)
Quadrupole couplings                    ...  NO (   0 nuclei)
Contact density                         ...  NO (   0 nuclei)

NMR properties:
Chemical shifts                         ...  NO (   0 nuclei)
Spin-rotation constants                 ...  NO (   0 nuclei)
Spin-spin couplings                     ...  NO (   0 nuclei,    0 pairs)

Choice of magnetic origin               ... GIAO
Position of magnetic origin             ...     0.000000     0.000000     0.000000

Properties with geometric perturbations:
SCF Hessian                             ...  NO
IR spectrum                             ...  NO
VCD spectrum                            ...  NO
X-ray spectroscopy properties:
SCF XES/XAS/RIXS spectra                ...  NO

SCF SOC stabilization energy            ...  NO
Diagonal Born-Oppenheimer correction    ...  NO

-------------
DIPOLE MOMENT
-------------

Method             : SCF
Type of density    : Electron Density
Multiplicity       :   1
Irrep              :   0
Energy             :  -494.0197051451579000 Eh
Basis              : AO
                                X                 Y                 Z
Electronic contribution:     11.263446543      -4.179191567       1.479084709
Nuclear contribution   :    -10.702048352       4.963884422      -1.302013714
                        -----------------------------------------
Total Dipole Moment    :      0.561398191       0.784692855       0.177070996
                        -----------------------------------------
Magnitude (a.u.)       :      0.980951040
Magnitude (Debye)      :      2.493379392



--------------------
Rotational spectrum 
--------------------
 
Rotational constants in cm-1:             0.077866             0.017684             0.016615 
Rotational constants in MHz :          2334.375067           530.151913           498.092946 

Dipole components along the rotational axes: 
x,y,z [a.u.] :     0.283078     0.302318     0.889233 
x,y,z [Debye]:     0.719528     0.768433     2.260250 

 

Dipole moment calculation done in   0.0 sec 

Maximum memory used throughout the entire PROP-calculation: 10.9 MB

--------------------------------
SUGGESTED CITATIONS FOR THIS RUN
--------------------------------

Below you find a list of papers that are relevant to this ORCA run
We neither can nor want to force you to cite these papers, but we appreciate if you do
You receive ORCA, which is the product of decades of hard work by many enthusiastic individuals, for free
The only thing we kindly ask in return is that you cite our papers,
We deeply appreciate it, if you show your appreciation for ORCA by not just citing the generic ORCA reference.

Please note that relegating all ORCA citations to the supporting information does *not* help us.
SI sections are not indexed - citations you put there will not count into any citation statistics
But we need these citations in order to attract the funding resources that allow us to do what we are doing

Therefore, if you are a happy ORCA user, please consider citing a few of the papers listed below in the main body of your paper

In addition to the list printed below, the program has created the file 5.bibtex that contains the list in bibtex format
You can import this file easily into all common literature databanks and citation aid programs


List of essential papers. We consider these as the minimum necessary citations

  1. Neese, F.
     Software update: the ORCA program system, version 6.0
     WIRES Comput. Molec. Sci. 2025 15(1), e70019
     doi.org/10.1002/wcms.7019

List of papers to cite with high priority. The work reported in these papers was absolutely
necessary for this run to complete.
Our perspective: the developers of density functionals and basis sets usually get cited in chemistry papers
Good! But without the algorithms to do something with them, the functionals or basis sets would not do anything.
Hence, in our opinion, the algorithm design and method developments papers are equally worthy of getting cited

  1. Neese, F.
     The SHARK Integral Generation and Digestion System
     J. Comp. Chem. 2022 44(3), 381
     doi.org/10.1002/jcc.26942

List of suggested additional citations. These are papers that are important in the 'surrounding' of 
of this run, or papers that preceded the highly important papers. If you like your results we are grateful for a citation.

  1. Neese, F.
     The ORCA program system
     WIRES Comput. Molec. Sci. 2012 2(1), 73-78
     doi.org/10.1002/wcms.81
  2. Neese, F.
     Software update: the ORCA program system, version 4.0
     WIRES Comput. Molec. Sci. 2018 8(1), 1-6
     doi.org/10.1002/wcms.1327
  3. Neese, F.; Wennmohs, F.; Becker, U.; Riplinger, C.
     The ORCA quantum chemistry program package
     J. Chem. Phys. 2020 152(22), 224108
     doi.org/10.1063/5.0004608
  4. Neese, F.
     Software update: The ORCA program system—Version 5.0
     WIRES Comput. Molec. Sci. 2022 12(1), e1606
     doi.org/10.1002/wcms.1606

List of optional additional citations

  1. Neese, F.
     Approximate second-order SCF convergence for spin unrestricted wavefunctions
     Chem. Phys. Lett. 2000 325(1-3), 93-98
     doi.org/10.1016/s0009-2614(00)00662-x

Timings for individual modules:

Sum of individual times          ...       37.093 sec (=   0.618 min)
Startup calculation              ...        0.495 sec (=   0.008 min)   1.3 %
SCF iterations                   ...       21.946 sec (=   0.366 min)  59.2 %
Property calculations            ...        0.025 sec (=   0.000 min)   0.1 %
MP2 module                       ...       14.625 sec (=   0.244 min)  39.4 %
                             ****ORCA TERMINATED NORMALLY****
TOTAL RUN TIME: 0 days 0 hours 0 minutes 37 seconds 133 msec
