
                                 *****************
                                 * O   R   C   A *
                                 *****************

                                            #,                                       
                                            ###                                      
                                            ####                                     
                                            #####                                    
                                            ######                                   
                                           ########,                                 
                                     ,,################,,,,,                         
                               ,,#################################,,                 
                          ,,##########################################,,             
                       ,#########################################, ''#####,          
                    ,#############################################,,   '####,        
                  ,##################################################,,,,####,       
                ,###########''''           ''''###############################       
              ,#####''   ,,,,##########,,,,          '''####'''          '####       
            ,##' ,,,,###########################,,,                        '##       
           ' ,,###''''                  '''############,,,                           
         ,,##''                                '''############,,,,        ,,,,,,###''
      ,#''                                            '''#######################'''  
     '                                                          ''''####''''         
             ,#######,   #######,   ,#######,      ##                                
            ,#'     '#,  ##    ##  ,#'     '#,    #''#        ,####,    ,#,          
            ##       ##  ##   ,#'  ##            #'  '#       #'       ,# #          
            ##       ##  #######   ##           ,######,      #####,      #          
            '#,     ,#'  ##    ##  '#,     ,#' ,#      #,     #,   #      #          
             '#######'   ##     ##  '#######'  #'      '#     '####' #    #          



                #########################################################
                #                        -***-                          #
                #          Department of theory and spectroscopy        #
                #                                                       #
                #                      Frank Neese                      #
                #                                                       #
                #     Directorship, Architecture, Infrastructure        #
                #                    SHARK, DRIVERS                     #
                #        Core code/Algorithms in most modules           #
                #                                                       #
                #        Max Planck Institute fuer Kohlenforschung      #
                #                Kaiser Wilhelm Platz 1                 #
                #                 D-45470 Muelheim/Ruhr                 #
                #                      Germany                          #
                #                                                       #
                #                  All rights reserved                  #
                #                        -***-                          #
                #########################################################


                         Program Version 6.1.0  -  RELEASE   -
                                (GIT: $679e74b$)
                          ($2025-06-10 18:02:51 +0200$)


 With contributions from (in alphabetic order):
[Max-Planck-Institut fuer Kohlenforschung]                               
  Daniel Aravena         : Magnetic Suceptibility                        
  Michael Atanasov       : Ab Initio Ligand Field Theory (pilot matlab implementation)
  Alexander A. Auer      : GIAO ZORA, VPT2 properties, NMR spectrum      
  Ute Becker             : All parallelization in ORCA, NUMFREQ, NUMCALC 
  Giovanni Bistoni       : ED, misc. LED, open-shell LED, HFLD           
  Dmytro Bykov           : pre 5.0 version of the SCF Hessian            
  Marcos Casanova-Páez   : Triplet and SCS-CIS(D). UHF-(DLPNO)-IP/EA/STEOM-CCSD. UHF-CVS-IP/STEOM-CCSD   
  Vijay G. Chilkuri      : MRCI spin determinant printing, contributions to CSF-ICE 
  Pauline Colinet        : FMM embedding                                 
  Dipayan Datta          : RHF DLPNO-CCSD density                        
  Achintya Kumar Dutta   : EOM-CC, STEOM-CC                              
  Nicolas Foglia         : Exact transition moments, OPA infrastructure, MCD improvements    
  Dmitry Ganyushin       : Spin-Orbit,Spin-Spin,Magnetic field MRCI      
  Miquel Garcia-Rates    : C-PCM and meta-GGA Hessian, CCSD/C-PCM, Gaussian charge scheme 
  Tiago L. C. Gouveia    : GS-ROHF, GS-ROCIS                             
  Yang Guo               : DLPNO-NEVPT2, F12-NEVPT2, CIM, IAO-localization        
  Andreas Hansen         : Spin unrestricted coupled pair/coupled cluster methods 
  Ingolf Harden          : AUTO-CI MPn and infrastructure                
  Benjamin Helmich-Paris : MC-RPA, TRAH-(SCF,CASSCF), AVAS, COSX integrals, SCF dyn. polar., MC-PDFT, srDFT 
  Lee Huntington         : MR-EOM, pCC                                   
  Robert Izsak           : Overlap fitted RIJCOSX, COSX-SCS-MP3, EOM     
  Riya Kayal             : Wick's Theorem for AUTO-CI, AUTO-CI UHF-CCSDT 
  Emily Kempfer          : AUTO-CI RHF CISDT and CCSDT, approximate NEVPT4
  Christian Kollmar      : KDIIS, OOCD, Brueckner-CCSD(T), CCSD density, CASPT2, CASPT2-K, improved NEVPT2 
  Axel Koslowski         : Symmetry handling                             
  Simone Kossmann        : meta-GGA functionals, TD-DFT gradient, OOMP2, (MP2 Hessian; deprecated post 5.0) 
  Lucas Lang             : DCDCAS, Hyperfine gauge corrections, ICE-SOC+SSC
  Marvin Lechner         : AUTO-CI (C++ implementation), FIC-MRCC        
  Spencer Leger          : CASSCF response                               
  Dagmar Lenk            : GEPOL surface, SMD, ORCA-2-JSON               
  Dimitrios Liakos       : Extrapolation schemes; Compound Job, Property file
  Dimitrios Manganas     : Further ROCIS development; embedding schemes. LFT, Crystal Embedding 
  Dimitrios Pantazis     : SARC Basis sets                               
  Anastasios Papadopoulos: AUTO-CI, single reference methods and gradients 
  Taras Petrenko         : pre 6.0 DFT Hessian and TD-DFT gradient,  ECA, NRVS 
  Petra Pikulova         : Analytic Raman intensities                    
  Peter Pinski           : DLPNO-MP2, DLPNO-MP2 Gradient                 
  Shashank Vittal Rao    : ES-AILFT, MagRelax                            
  Christoph Reimann      : Effective Core Potentials                     
  Marius Retegan         : Local ZFS, SOC                                
  Christoph Riplinger    : Optimizer, TS searches, QM/MM, DLPNO-CCSD(T), (RO)-DLPNO pert. Triples 
  Michael Roemelt        : Original ROCIS implementation, recursive CI coupling coefficients
  Masaaki Saitow         : Open-shell DLPNO-CCSD energy and density      
  Barbara Sandhoefer     : DKH picture change effects                    
  Yorick L. A. Schmerwitz: GMF and freeze-and-release deltaSCF, NEB S-IDPP initial path                    
  Kantharuban Sivalingam : CASSCF convergence/infrastructure, NEVPT2, NEVPT3, NEVPT4(SD), FIC-MRCI and CEPA variants
  Bernardo de Souza      : ESD, SOC TD-DFT                               
  Georgi L. Stoychev     : AutoAux, RI-MP2 NMR, DLPNO-MP2 response, X2C  
  Van Anh Tran           : RI-MP2 g-tensors                              
  Willem Van den Heuvel  : Paramagnetic NMR                              
  Zikuan Wang            : NOTCH, Electric field optimization            
  Frank Wennmohs         : Technical directorship and infrastructure     
  Hang Xu                : AUTO-CI-Response properties                   
                                                                         
[FACCTs GmbH]                                                            
  Markus Bursch, Nicolas Foglia, Miquel Garcia-Rates, Ingolf Harden, Hagen Neugebauer, Anastasios Papadopoulos, 
  Christoph Riplinger, Bernardo de Souza, Georgi L. Stoychev                                                    
                                                                 
  APM, various basis sets, CI-OPT, improved COSX, DLPNO-Multilevel,           
  DOCKER, DRACO, updates on ESD, Fragmentator, GOAT, IRC, LR-CPCM, L-BFGS, MBIS, meta-GGA TD-DFT gradient, ML-optimized integration grids, 
  MM, NACMEs, nearIR, NEB, NEB-TS, NL-DFT gradient (VV10), 2- and 3-layer-ONIOM, interface openCOSMO-RS, QMMM,   
  Crystal-QMMM, RESP, rigid body optimization, SF, symmetry and pop. for TD-DFT, various functionals, SOLVATOR                                   
                                                                         
[Other institutions]                                                     
  V. Asgeirsson          : NEB                                           
  Christoph Bannwarth    : sTDA-DFT, sTD-DFT, PBEh-3c, B97-3c, D3        
  Giovanni Bistoni       : ETS/NOCV, ADLD/ADEX, COVALED                  
  Martin Brehm           : Molecular dynamics                            
  Ronald Cardenas        : ETS/NOCV                                      
  Martina Colucci        : COVALED                                       
  Sebastian Ehlert       : rSCAN, r2SCAN, r2SCAN-3c, D4, dhf basis sets  
  Marvin Friede          : D4 for Fr, Ra, Ac-Lr                          
  Lars Goerigk           : TD-DFT with DH, B97 family of functionals     
  Stefan Grimme          : VdW corrections, initial TS optimization, DFT functionals, gCP, sTDA/sTD-DF 
  Waldemar Hujo          : DFT-NL                                        
  H. Jonsson             : NEB                                           
  Holger Kruse           : gCP                                           
  Marcel Mueller         : wB97X-3c, vDZP basis set                      
  Hagen Neugebauer       : wr2SCAN, Native XTB                           
  Gianluca Regni         : ADLD/ADEX                                     
  Tobias Risthaus        : pre 6.0 range-separated hybrid DFT and stability analysis
  Lukas Wittmann         : regularized MP2, r2SCAN double-hybrids, wr2SCAN        
                                                                         
We gratefully acknowledge several colleagues who have allowed us to      
interface, adapt or use parts of their codes:                            
  Ed Valeev, F. Pavosevic, A. Kumar             : LibInt (2-el integral package), F12 methods 
  Garnet Chan, S. Sharma, J. Yang, R. Olivares  : DMRG                   
  Ulf Ekstrom                                   : XCFun DFT Library      
  Mihaly Kallay                                 : mrcc  (arbitrary order and MRCC methods)
  Frank Weinhold                                : gennbo (NPA and NBO analysis)           
  Simon Mueller                                 : openCOSMO-RS                            
  Christopher J. Cramer and Donald G. Truhlar   : smd solvation model                     
  S Lehtola, MJT Oliveira, MAL Marques          : LibXC Library                           
  Liviu Ungur et al                             : ANISO software                          


 Your calculation uses the libint2 library for the computation of 2-el integrals
 For citations please refer to: http://libint.valeyev.net

 Your ORCA version has been built with support for libXC version: 7.0.0
 For citations please refer to: https://libxc.gitlab.io

 This ORCA versions uses:
   CBLAS   interface :  Fast vector & matrix operations
   LAPACKE interface :  Fast linear algebra routines
   SCALAPACK package :  Parallel linear algebra routines
   Shared memory     :  Shared parallel matrices
   BLAS/LAPACK       :  OpenBLAS 0.3.29  USE64BITINT DYNAMIC_ARCH NO_AFFINITY Haswell SINGLE_THREADED
        Core in use  :  Haswell
   Copyright (c) 2011-2014, The OpenBLAS Project


  ***********************************
  * Starting time: Thu Aug 14 12:15:54 2025
  * Host name:     CHEMLAB02
  * Process ID:    1770041
  * Working dir.:  /home/vivek/mm-project/vivek/MP2/g/5
  ***********************************



***************************************
The coordinates will be read from file: /home/vivek/mm-project/vivek/xtb-goat/g/G_CONF/5.xyz
***************************************


================================================================================

----- Orbital basis set information -----
Your calculation utilizes the basis: 6-31G**
   H-He, Li-Ne : W. J. Hehre, R. Ditchfield and J.A. Pople, J. Chem. Phys. 56, 2257 (1972).
                 Note: He and Ne are unpublished basis sets taken from the Gaussian program.
                 Note: Li and B from J. D. Dill and J. A. Pople, J. Chem. Phys. 62, 2921 (1975).
   Na - Ar     : M. M. Francl, W. J. Pietro, W. J. Hehre, J. S. Binkley, M. S. Gordon, 
                 D. J. DeFrees and J. A. Pople, J. Chem. Phys. 77, 3654 (1982).
   K - Zn      : V. A. Rassolov, J. A. Pople, M. A. Ratner, and T. L. Windus, J. Chem. Phys. 109, 1223 (1998).

================================================================================
                                        WARNINGS
                       Please study these warnings very carefully!
================================================================================


WARNING: No MP2 level density has been requested!
         To calculate MP2 level properties use
         %mp2 Density relaxed end
         or
         %mp2 Density unrelaxed end

WARNING: Post HF methods need fully converged wavefunctions
  ===> : Setting SCFConvForced true
         You can overwrite this default with %scf ConvForced false 


================================================================================
                                       INPUT FILE
================================================================================
NAME = 5.inp
|  1> ! MP2 6-31G** 
|  2> 
|  3> * xyzfile 0 1 /home/vivek/mm-project/vivek/xtb-goat/g/G_CONF/5.xyz
|  4> 
|  5>                          ****END OF INPUT****
================================================================================

                       ****************************
                       * Single Point Calculation *
                       ****************************

---------------------------------
CARTESIAN COORDINATES (ANGSTROEM)
---------------------------------
  C     -4.684757   -1.322630   -0.021595
  C     -4.205294   -2.541391    0.780450
  H     -5.644497   -0.177343    1.378717
  H     -6.433352   -0.238892   -0.054787
  N     -5.887869   -0.783726    0.601731
  O     -5.140105   -3.033678    1.585539
  H     -3.852683   -0.614727   -0.117715
  H     -4.930963   -1.685986   -1.023384
  H     -5.937189   -2.465228    1.500304
  O     -3.107578   -3.006084    0.674967

----------------------------
CARTESIAN COORDINATES (A.U.)
----------------------------
  NO LB      ZA    FRAG     MASS         X           Y           Z
   0 C     6.0000    0    12.011   -8.852907   -2.499408   -0.040809
   1 C     6.0000    0    12.011   -7.946855   -4.802533    1.474837
   2 H     1.0000    0     1.008  -10.666554   -0.335129    2.605398
   3 H     1.0000    0     1.008  -12.157274   -0.451440   -0.103532
   4 N     7.0000    0    14.007  -11.126459   -1.481028    1.137108
   5 O     8.0000    0    15.999   -9.713391   -5.732821    2.996235
   6 H     1.0000    0     1.008   -7.280515   -1.161666   -0.222449
   7 H     1.0000    0     1.008   -9.318170   -3.186053   -1.933915
   8 H     1.0000    0     1.008  -11.219662   -4.658606    2.835163
   9 O     8.0000    0    15.999   -5.872472   -5.680675    1.275502

--------------------------------
INTERNAL COORDINATES (ANGSTROEM)
--------------------------------
 C      0   0   0     0.000000000000     0.00000000     0.00000000
 C      1   0   0     1.535753819388     0.00000000     0.00000000
 H      1   2   0     2.047842842123   103.47553991     0.00000000
 H      3   1   2     1.637380288777    66.80328792   221.48706260
 N      4   3   1     1.012626936124    36.20525171    37.99389650
 O      2   1   3     1.328301846034   113.01288989    45.43358815
 H      1   2   3     1.096682524361   108.73309429    98.07401849
 H      1   2   3     1.093720981080   106.55784031   213.97256401
 H      6   2   1     0.982722733623   107.69031850   358.01106100
 O      2   1   3     1.196681910631   123.26499926   224.54339443

---------------------------
INTERNAL COORDINATES (A.U.)
---------------------------
 C      0   0   0     0.000000000000     0.00000000     0.00000000
 C      1   0   0     2.902154127768     0.00000000     0.00000000
 H      1   2   0     3.869862136923   103.47553991     0.00000000
 H      3   1   2     3.094200322869    66.80328792   221.48706260
 N      4   3   1     1.913587585106    36.20525171    37.99389650
 O      2   1   3     2.510126712186   113.01288989    45.43358815
 H      1   2   3     2.072429626901   108.73309429    98.07401849
 H      1   2   3     2.066833121165   106.55784031   213.97256401
 H      6   2   1     1.857076832126   107.69031850   358.01106100
 O      2   1   3     2.261401080510   123.26499926   224.54339443

---------------------
BASIS SET INFORMATION
---------------------
There are 4 groups of distinct atoms

 Group   1 Type C   : 10s4p1d contracted to 3s2p1d pattern {631/31/1}
 Group   2 Type H   : 4s1p contracted to 2s1p pattern {31/1}
 Group   3 Type N   : 10s4p1d contracted to 3s2p1d pattern {631/31/1}
 Group   4 Type O   : 10s4p1d contracted to 3s2p1d pattern {631/31/1}

Atom   0C    basis set group =>   1
Atom   1C    basis set group =>   1
Atom   2H    basis set group =>   2
Atom   3H    basis set group =>   2
Atom   4N    basis set group =>   3
Atom   5O    basis set group =>   4
Atom   6H    basis set group =>   2
Atom   7H    basis set group =>   2
Atom   8H    basis set group =>   2
Atom   9O    basis set group =>   4
------------------------------------------------------------------------------
                             ORCA STARTUP CALCULATIONS
------------------------------------------------------------------------------
------------------------------------------------------------------------------
                   ___                                                        
                  /   \      - P O W E R E D   B Y -                         
                 /     \                                                     
                 |  |  |   _    _      __       _____    __    __             
                 |  |  |  | |  | |    /  \     |  _  \  |  |  /  |          
                  \  \/   | |  | |   /    \    | | | |  |  | /  /          
                 / \  \   | |__| |  /  /\  \   | |_| |  |  |/  /          
                |  |  |   |  __  | /  /__\  \  |    /   |      \           
                |  |  |   | |  | | |   __   |  |    \   |  |\   \          
                \     /   | |  | | |  |  |  |  | |\  \  |  | \   \       
                 \___/    |_|  |_| |__|  |__|  |_| \__\ |__|  \__/        
                                                                              
                      - O R C A' S   B I G   F R I E N D -                    
                                      &                                       
                       - I N T E G R A L  F E E D E R -                       
                                                                              
 v1 FN, 2020, v2 2021, v3 2022-2024                                           
------------------------------------------------------------------------------


----------------------
SHARK INTEGRAL PACKAGE
----------------------

Number of atoms                             ...     10
Number of basis functions                   ...     95
Number of shells                            ...     45
Maximum angular momentum                    ...      2
Integral batch strategy                     ... SHARK/LIBINT Hybrid
RI-J (if used) integral strategy            ... SPLIT-RIJ (Revised 2003 algorithm where possible)
Printlevel                                  ...      1
Contraction scheme used                     ... SEGMENTED contraction
Prescreening option                         ... SCHWARTZ
   Thresh                                   ... 1.000e-10
   Tcut                                     ... 1.000e-11
   Tpresel                                  ... 1.000e-11 
Coulomb Range Separation                    ... NOT USED
Exchange Range Separation                   ... NOT USED
Multipole approximations                    ... NOT USED
Finite Nucleus Model                        ... NOT USED
CABS basis                                  ... NOT available
Auxiliary Coulomb fitting basis             ... NOT available
Auxiliary J/K fitting basis                 ... NOT available
Auxiliary Correlation fitting basis         ... NOT available
Auxiliary 'external' fitting basis          ... NOT available

Checking pre-screening integrals            ... done (  0.0 sec) Dimension = 45
   => SHARK Basis and OBASIS are compatible. Storing Pre-screening
Shell pair information
Shell pair cut-off parameter TPreSel        ...   1.0e-11
Total number of shell pairs                 ...      1035
Shell pairs after pre-screening             ...      1005
Total number of primitive shell pairs       ...      5170
Primitive shell pairs kept                  ...      3727
          la=0 lb=0:    313 shell pairs
          la=1 lb=0:    361 shell pairs
          la=1 lb=1:    119 shell pairs
          la=2 lb=0:    123 shell pairs
          la=2 lb=1:     74 shell pairs
          la=2 lb=2:     15 shell pairs

Checking whether 4 symmetric matrices of dimension 95 fit in memory
:Max Core in MB      =   4096.00
 MB in use           =      2.63
 MB left             =   4093.37
 MB needed           =      0.14
 Data fit in memory  = YES
Calculating Nuclear repulsion               ... done (  0.0 sec) ENN=    181.641904075899 Eh

Diagonalization of the overlap matrix:
Smallest eigenvalue                        ... 4.478e-03
Time for diagonalization                   ...    0.001 sec
Threshold for overlap eigenvalues          ... 1.000e-07
Number of eigenvalues below threshold      ... 0
Time for construction of square roots      ...    0.000 sec
Total time needed                          ...    0.001 sec

-------------------
DFT GRID GENERATION
-------------------

General Integration Accuracy     IntAcc      ... 4.388
Radial Grid Type                 RadialGrid  ... OptM3 with GC (2021)
Angular Grid (max. ang.)         AngularGrid ... 4 (Lebedev-302)
Angular grid pruning method      GridPruning ... 4 (adaptive)
Weight generation scheme         WeightScheme... mBecke (2022)
Basis function cutoff            BFCut       ... 1.0000e-10
Integration weight cutoff        WCut        ... 1.0000e-14
Partially contracted basis set               ... off
Rotationally invariant grid construction     ... off
Angular grids for H and He will be reduced by one unit

Total number of grid points                  ...    46595
Total number of batches                      ...      733
Average number of points per batch           ...       63
Average number of grid points per atom       ...     4660
Grids setup in   0.1 sec
Initializing property integral containers    ... done (  0.0 sec)

SHARK setup successfully completed in   0.2 seconds

Maximum memory used throughout the entire STARTUP-calculation: 17.8 MB
-------------------------------------------------------------------------------
                                 ORCA GUESS
                   Start orbitals & Density for SCF / CASSCF
-------------------------------------------------------------------------------

------------
SCF SETTINGS
------------
Hamiltonian:
 Ab initio Hamiltonian  Method          .... Hartree-Fock(GTOs)


General Settings:
 Integral files         IntName         .... 5
 Hartree-Fock type      HFTyp           .... RHF
 Total Charge           Charge          ....    0
 Multiplicity           Mult            ....    1
 Number of Electrons    NEL             ....   40
 Basis Dimension        Dim             ....   95
 Nuclear Repulsion      ENuc            ....    181.6419040759 Eh

Convergence Acceleration:
 AO-DIIS                CNVDIIS         .... on
   Start iteration      DIISMaxIt       ....    12
   Startup error        DIISStart       ....  0.200000
   # of expansion vecs  DIISMaxEq       ....     5
   Bias factor          DIISBfac        ....   1.050
   Max. coefficient     DIISMaxC        ....  10.000
 MO-DIIS                CNVKDIIS        .... off
 Trust-Rad. Augm. Hess. CNVTRAH         .... auto
   Auto Start mean grad. ratio tolernc. ....  1.125000
   Auto Start start iteration           ....    50
   Auto Start num. interpolation iter.  ....    10
   Max. Number of Micro iterations      ....    24
   Max. Number of Macro iterations      .... Maxiter - #DIIS iter
   Number of Davidson start vectors     ....     2
   Converg. threshold    (grad. norm)   ....   5.000e-05
   Grad. Scal. Fac. for Micro threshold ....   0.100
   Minimum threshold for Micro iter.    ....   1.000e-02
   NR start threshold (gradient norm)   ....   1.000e-04
   Initial trust radius                 ....   0.400
   Minimum AH scaling param. (alpha)    ....   1.000
   Maximum AH scaling param. (alpha)    .... 1000.000
   Quad. conv. algorithm                .... NR
   White noise on init. David. guess    .... on
   Maximum white noise                  ....   0.010
   Pseudo random numbers                .... off
   Inactive MOs                         .... canonical
   Orbital update algorithm             .... Taylor
   Preconditioner                       .... Diag
   Full preconditioner red. dimension   ....   250
 SOSCF                 CNVSOSCF           .... on
   Start iteration     SOSCFMaxIt         ....   150
   Startup grad/error  SOSCFStart         ....  0.003300
   Hessian update      SOSCFHessUp        .... L-BFGS
   Autom. constraints  SOSCFAutoConstrain .... off
 Level Shifting         CNVShift        .... on
   Level shift para.    LevelShift      ....    0.2500
   Turn off err/grad.   ShiftErr        ....    0.0010
 Zerner damping         CNVZerner       .... off
 Static damping         CNVDamp         .... on
   Fraction old density DampFac         ....    0.7000
   Max. Damping (<1)    DampMax         ....    0.9800
   Min. Damping (>=0)   DampMin         ....    0.0000
   Turn off err/grad.   DampErr         ....    0.1000

SCF Procedure:
 Maximum # iterations   MaxIter         ....   125
 SCF integral mode      SCFMode         .... Direct
   Integral package                     .... SHARK and LIBINT hybrid scheme
 Reset frequency        DirectResetFreq ....    20
 Integral Threshold     Thresh          ....  1.000e-10 Eh
 Primitive CutOff       TCut            ....  1.000e-11 Eh

Convergence Tolerance:
 Convergence Check Mode ConvCheckMode   .... Total+1el-Energy
 Convergence forced     ConvForced      .... 1
 Energy Change          TolE            ....  1.000e-06 Eh
 1-El. energy change                    ....  1.000e-03 Eh
 Orbital Gradient       TolG            ....  5.000e-05
 Orbital Rotation angle TolX            ....  5.000e-05
 DIIS Error             TolErr          ....  1.000e-06

------------------------------
INITIAL GUESS: MODEL POTENTIAL
------------------------------
Loading Hartree-Fock densities                     ... done
Calculating cut-offs                               ... done
Initializing the effective Hamiltonian             ... done
Setting up the integral package (SHARK)            ... done
Starting the Coulomb interaction                   ... done (   0.0 sec)
Making the grid                                    ... done (   0.0 sec)
Mapping shells                                     ... done
Starting the XC term evaluation                    ... done (   0.0 sec)
Transforming the Hamiltonian                       ... done (   0.0 sec)
Diagonalizing the Hamiltonian                      ... done (   0.0 sec)
Back transforming the eigenvectors                 ... done (   0.0 sec)
Now organizing SCF variables                       ... done
                      ------------------
                      INITIAL GUESS DONE (   0.1 sec)
                      ------------------
             **** ENERGY FILE WAS UPDATED (5.en.tmp) ****
Finished Guess after   0.1 sec
Maximum memory used throughout the entire GUESS-calculation: 6.2 MB

-------------------------------------------------------------------------------------------
                                      ORCA LEAN-SCF
                              memory conserving SCF solver
-------------------------------------------------------------------------------------------

----------------------------------------D-I-I-S--------------------------------------------
Iteration    Energy (Eh)           Delta-E    RMSDP     MaxDP     DIISErr   Damp  Time(sec)
-------------------------------------------------------------------------------------------
               ***  Starting incremental Fock matrix formation  ***
    1    -282.6120820907091229     0.00e+00  3.59e-03  6.32e-02  2.57e-01  0.700   0.2
    2    -282.6949727227922722    -8.29e-02  2.60e-03  4.42e-02  1.54e-01  0.700   0.2
                               ***Turning on AO-DIIS***
    3    -282.7425188785965702    -4.75e-02  1.33e-03  1.99e-02  8.33e-02  0.700   0.2
    4    -282.7723935276185330    -2.99e-02  3.00e-03  4.20e-02  5.74e-02  0.000   0.2
    5    -282.8390523059379120    -6.67e-02  4.13e-04  5.22e-03  4.30e-03  0.000   0.2
                              *** Initializing SOSCF ***
---------------------------------------S-O-S-C-F--------------------------------------
Iteration    Energy (Eh)           Delta-E    RMSDP     MaxDP     MaxGrad    Time(sec)
--------------------------------------------------------------------------------------
    6    -282.8393833737043224    -3.31e-04  2.08e-04  2.23e-03  2.33e-03     0.2
               *** Restarting incremental Fock matrix formation ***
    7    -282.8394649815666071    -8.16e-05  1.39e-04  1.54e-03  1.16e-03     0.2
    8    -282.8394931684334779    -2.82e-05  1.68e-04  1.95e-03  4.77e-04     0.2
    9    -282.8395031812012803    -1.00e-05  3.14e-05  3.83e-04  2.20e-04     0.2
   10    -282.8395042384137241    -1.06e-06  8.05e-06  8.58e-05  4.25e-05     0.2
   11    -282.8395043072262069    -6.88e-08  4.44e-06  5.84e-05  1.57e-05     0.2
                 **** Energy Check signals convergence ****

               *****************************************************
               *                     SUCCESS                       *
               *           SCF CONVERGED AFTER  11 CYCLES          *
               *****************************************************

             **** ENERGY FILE WAS UPDATED (5.en.tmp) ****

----------------
TOTAL SCF ENERGY
----------------

Total Energy       :       -282.83950431920937 Eh           -7696.45419 eV

Components:
Nuclear Repulsion  :        181.64190407589948 Eh            4942.72749 eV
Electronic Energy  :       -464.48140839510882 Eh          -12639.18169 eV
One Electron Energy:       -746.96784096032968 Eh          -20326.02831 eV
Two Electron Energy:        282.48643256522087 Eh            7686.84662 eV

Virial components:
Potential Energy   :       -565.23955516797128 Eh          -15380.95025 eV
Kinetic Energy     :        282.40005084876185 Eh            7684.49606 eV
Virial Ratio       :          2.00155613807125

---------------
SCF CONVERGENCE
---------------

  Last Energy change         ...    6.8812e-08  Tolerance :   1.0000e-06
  Last MAX-Density change    ...    5.8411e-05  Tolerance :   1.0000e-05
  Last RMS-Density change    ...    4.4440e-06  Tolerance :   1.0000e-06
  Last DIIS Error            ...    2.3266e-03  Tolerance :   1.0000e-06
  Last Orbital Gradient      ...    1.5674e-05  Tolerance :   5.0000e-05
  Last Orbital Rotation      ...    3.8625e-05  Tolerance :   5.0000e-05


----------------
ORBITAL ENERGIES
----------------

  NO   OCC          E(Eh)            E(eV) 
   0   2.0000     -20.595757      -560.4390 
   1   2.0000     -20.536654      -558.8308 
   2   2.0000     -15.592321      -424.2886 
   3   2.0000     -11.375407      -309.5406 
   4   2.0000     -11.287854      -307.1581 
   5   2.0000      -1.451280       -39.4913 
   6   2.0000      -1.353711       -36.8364 
   7   2.0000      -1.222708       -33.2716 
   8   2.0000      -0.971272       -26.4296 
   9   2.0000      -0.809323       -22.0228 
  10   2.0000      -0.741323       -20.1724 
  11   2.0000      -0.696198       -18.9445 
  12   2.0000      -0.671331       -18.2679 
  13   2.0000      -0.622517       -16.9395 
  14   2.0000      -0.617020       -16.7900 
  15   2.0000      -0.561673       -15.2839 
  16   2.0000      -0.551279       -15.0011 
  17   2.0000      -0.462871       -12.5954 
  18   2.0000      -0.454886       -12.3781 
  19   2.0000      -0.422101       -11.4860 
  20   0.0000       0.178006         4.8438 
  21   0.0000       0.208136         5.6637 
  22   0.0000       0.260588         7.0910 
  23   0.0000       0.271112         7.3773 
  24   0.0000       0.295013         8.0277 
  25   0.0000       0.338284         9.2052 
  26   0.0000       0.371288        10.1032 
  27   0.0000       0.428904        11.6711 
  28   0.0000       0.508716        13.8429 
  29   0.0000       0.570616        15.5273 
  30   0.0000       0.734816        19.9954 
*Only the first 10 virtual orbitals were printed.

                    ********************************
                    * MULLIKEN POPULATION ANALYSIS *
                    ********************************

-----------------------
MULLIKEN ATOMIC CHARGES
-----------------------
   0 C :   -0.148386
   1 C :    0.797823
   2 H :    0.295234
   3 H :    0.299163
   4 N :   -0.768935
   5 O :   -0.639565
   6 H :    0.159111
   7 H :    0.169789
   8 H :    0.404399
   9 O :   -0.568634
Sum of atomic charges:   -0.0000000

--------------------------------
MULLIKEN REDUCED ORBITAL CHARGES
--------------------------------
  0 C s       :     3.224361  s :     3.224361
      pz      :     1.012175  p :     2.863116
      px      :     0.881035
      py      :     0.969906
      dz2     :     0.009876  d :     0.060909
      dxz     :     0.010484
      dyz     :     0.011319
      dx2y2   :     0.011186
      dxy     :     0.018045

  1 C s       :     2.940845  s :     2.940845
      pz      :     0.671363  p :     2.110965
      px      :     0.690335
      py      :     0.749268
      dz2     :     0.017287  d :     0.150367
      dxz     :     0.043628
      dyz     :     0.013586
      dx2y2   :     0.035939
      dxy     :     0.039926

  2 H s       :     0.679078  s :     0.679078
      pz      :     0.012089  p :     0.025688
      px      :     0.004795
      py      :     0.008804

  3 H s       :     0.674633  s :     0.674633
      pz      :     0.008761  p :     0.026204
      px      :     0.009181
      py      :     0.008262

  4 N s       :     3.621716  s :     3.621716
      pz      :     1.266207  p :     4.114506
      px      :     1.326207
      py      :     1.522092
      dz2     :     0.002169  d :     0.032714
      dxz     :     0.008117
      dyz     :     0.011532
      dx2y2   :     0.005508
      dxy     :     0.005386

  5 O s       :     3.837693  s :     3.837693
      pz      :     1.698597  p :     4.774419
      px      :     1.371062
      py      :     1.704760
      dz2     :     0.005783  d :     0.027453
      dxz     :     0.005484
      dyz     :     0.004640
      dx2y2   :     0.001535
      dxy     :     0.010012

  6 H s       :     0.828467  s :     0.828467
      pz      :     0.001710  p :     0.012422
      px      :     0.006215
      py      :     0.004497

  7 H s       :     0.817513  s :     0.817513
      pz      :     0.008301  p :     0.012698
      px      :     0.001647
      py      :     0.002749

  8 H s       :     0.552211  s :     0.552211
      pz      :     0.007711  p :     0.043389
      px      :     0.020364
      py      :     0.015314

  9 O s       :     3.872838  s :     3.872838
      pz      :     1.625671  p :     4.662461
      px      :     1.399826
      py      :     1.636964
      dz2     :     0.003071  d :     0.033335
      dxz     :     0.008823
      dyz     :     0.002166
      dx2y2   :     0.010340
      dxy     :     0.008935



                     *******************************
                     * LOEWDIN POPULATION ANALYSIS *
                     *******************************

----------------------
LOEWDIN ATOMIC CHARGES
----------------------
   0 C :   -0.074768
   1 C :    0.225484
   2 H :    0.139533
   3 H :    0.140925
   4 N :   -0.295979
   5 O :   -0.210139
   6 H :    0.078490
   7 H :    0.092239
   8 H :    0.193352
   9 O :   -0.289137

-------------------------------
LOEWDIN REDUCED ORBITAL CHARGES
-------------------------------
  0 C s       :     2.895401  s :     2.895401
      pz      :     1.055357  p :     3.060883
      px      :     0.975584
      py      :     1.029941
      dz2     :     0.018057  d :     0.118485
      dxz     :     0.021274
      dyz     :     0.020813
      dx2y2   :     0.023430
      dxy     :     0.034911

  1 C s       :     2.842276  s :     2.842276
      pz      :     0.787435  p :     2.606144
      px      :     0.940029
      py      :     0.878681
      dz2     :     0.037028  d :     0.326095
      dxz     :     0.096424
      dyz     :     0.027538
      dx2y2   :     0.080031
      dxy     :     0.085074

  2 H s       :     0.778137  s :     0.778137
      pz      :     0.035710  p :     0.082331
      px      :     0.016229
      py      :     0.030392

  3 H s       :     0.776034  s :     0.776034
      pz      :     0.027326  p :     0.083041
      px      :     0.027865
      py      :     0.027850

  4 N s       :     3.188340  s :     3.188340
      pz      :     1.240940  p :     4.049181
      px      :     1.336630
      py      :     1.471611
      dz2     :     0.005745  d :     0.058457
      dxz     :     0.014986
      dyz     :     0.018130
      dx2y2   :     0.009183
      dxy     :     0.010413

  5 O s       :     3.460731  s :     3.460731
      pz      :     1.677327  p :     4.700013
      px      :     1.345106
      py      :     1.677581
      dz2     :     0.008241  d :     0.049394
      dxz     :     0.011677
      dyz     :     0.007434
      dx2y2   :     0.004956
      dxy     :     0.017085

  6 H s       :     0.881090  s :     0.881090
      pz      :     0.006836  p :     0.040421
      px      :     0.019136
      py      :     0.014449

  7 H s       :     0.867408  s :     0.867408
      pz      :     0.025035  p :     0.040353
      px      :     0.006040
      py      :     0.009277

  8 H s       :     0.675363  s :     0.675363
      pz      :     0.024656  p :     0.131286
      px      :     0.057543
      py      :     0.049087

  9 O s       :     3.543062  s :     3.543062
      pz      :     1.590626  p :     4.688399
      px      :     1.473955
      py      :     1.623818
      dz2     :     0.007384  d :     0.057675
      dxz     :     0.011934
      dyz     :     0.002599
      dx2y2   :     0.017565
      dxy     :     0.018192



                      *****************************
                      * MAYER POPULATION ANALYSIS *
                      *****************************

  NA   - Mulliken gross atomic population
  ZA   - Total nuclear charge
  QA   - Mulliken gross atomic charge
  VA   - Mayer's total valence
  BVA  - Mayer's bonded valence
  FA   - Mayer's free valence

  ATOM       NA         ZA         QA         VA         BVA        FA
  0 C      6.1484     6.0000    -0.1484     3.7293     3.7293    -0.0000
  1 C      5.2022     6.0000     0.7978     3.7689     3.7689    -0.0000
  2 H      0.7048     1.0000     0.2952     0.8901     0.8901    -0.0000
  3 H      0.7008     1.0000     0.2992     0.8936     0.8936    -0.0000
  4 N      7.7689     7.0000    -0.7689     2.7349     2.7349    -0.0000
  5 O      8.6396     8.0000    -0.6396     1.8394     1.8394    -0.0000
  6 H      0.8409     1.0000     0.1591     0.9438     0.9438     0.0000
  7 H      0.8302     1.0000     0.1698     0.9400     0.9400     0.0000
  8 H      0.5956     1.0000     0.4044     0.8560     0.8560    -0.0000
  9 O      8.5686     8.0000    -0.5686     1.9188     1.9188     0.0000

  Mayer bond orders larger than 0.100000
B(  0-C ,  1-C ) :   0.9356 B(  0-C ,  4-N ) :   0.8990 B(  0-C ,  6-H ) :   0.9591 
B(  0-C ,  7-H ) :   0.9585 B(  1-C ,  5-O ) :   1.0155 B(  1-C ,  9-O ) :   1.8516 
B(  2-H ,  4-N ) :   0.8977 B(  3-H ,  4-N ) :   0.8997 B(  5-O ,  8-H ) :   0.7834 


-------
TIMINGS
-------

Total SCF time: 0 days 0 hours 0 min 2 sec 

Total time                  ....       2.438 sec
Sum of individual times     ....       2.263 sec  ( 92.8%)

SCF preparation             ....       0.013 sec  (  0.5%)
Fock matrix formation       ....       2.237 sec  ( 91.8%)
  Startup                   ....       0.000 sec  (  0.0% of F)
  Coulomb+Exchange Fock     ....       2.406 sec  (107.5% of F)
Diagonalization             ....       0.000 sec  (  0.0%)
Density matrix formation    ....       0.001 sec  (  0.1%)
Total Energy calculation    ....       0.000 sec  (  0.0%)
Population analysis         ....       0.001 sec  (  0.0%)
Orbital Transformation      ....       0.001 sec  (  0.1%)
Orbital Orthonormalization  ....       0.000 sec  (  0.0%)
DIIS solution               ....       0.006 sec  (  0.2%)
SOSCF solution              ....       0.003 sec  (  0.1%)
Finished LeanSCF after   2.4 sec

Maximum memory used throughout the entire LEANSCF-calculation: 9.3 MB

------------------------------------------------------------------------------
                                ORCA  MP2 
------------------------------------------------------------------------------

Freezing NCore=10 chemical core electrons

----------
MP2 ENERGY (disk based algorithm)
----------

Dimension of the basis                      ...   95
Memory devoted to MP2                       ... 4096 MB   
Data format for buffers                     ... DOUBLE
Compression type for matrix containers      ... UNCOMPRESSED

-------------------------
SHARK HALF TRANSFORMATION (Exchange order)
-------------------------

Number of basis functions                   ...     95
Number of operators                         ...      1
   Operator  0:    5-  19 (p-index in (p*|q*))
   Operator  0:    5-  19 (q-index in (p*|q*)
Integral generator used                     ... SHARK
Contraction scheme used                     ... SEGMENTED CONTRACTION
MaxCore in resort                           ...   4096 MB

Half transformed integrals for op=   0      ... 5.SHARK_MNPQ0.tmp
Resorted half transformed integrals         ... 5.KAO_aa.tmp

Half trafo (segmented) done. Total time =  1.1 sec. integrals=  1.1 sec trafo=  0.1 sec

----------------------
SHARK INTEGRAL SORTING (Exchange)
----------------------

Input container                             ... 5.SHARK_MNPQ0.tmp
Output container                            ... 5.KAO_aa.tmp
Range of AO-indices                         ...    0 -   94
Range of bra indices i                      ...    5 -   19
Range of ket indices j                      ...    5 -   19
Symmetric i,j range                         ... YES
Number of (i,j) pairs generated             ...  120
Max Core memory in MB                       ...   4096

Available core memory in MB                 ...   4092.31
MB needed for one item                      ...      0.07
Fixed MB needed                             ...      0.00
Number of items                             ...       120
Number of batches                           ...         1
Items treated per batch                     ...       120
Batch   0                                   ...      0-   119 (   120)
   => Closing output file and leaving
done (  0.0 sec)

SHARK half integral transformation done. Total time =  1.1 sec.


Finished integral transformation - now doing MP2 part

OPERATOR COMBINATION   0   0: ij=(  5.. 19,  5.. 19)
  Internal MO   7
  Internal MO  10
  Internal MO  13
  Internal MO  16
  Internal MO  19
-----------------------------------------------
 MP2 CORRELATION ENERGY   :     -0.792867391 Eh
-----------------------------------------------


-------
TIMINGS
-------
Total time                :    1.158 sec
Integral trafo            :    1.150 sec ( 99.3%)
K(i,j)                    :    0.005 sec (  0.5%)
T(i,j)                    :    0.000 sec (  0.0%)

---------------------------------------
MP2 TOTAL ENERGY:     -283.632371711 Eh
---------------------------------------

Maximum memory used throughout the entire MP2-calculation: 19.6 MB

-------------------------   --------------------
FINAL SINGLE POINT ENERGY      -283.632371710535
-------------------------   --------------------


------------------------------------------------------------------------------
                              ORCA PROPERTY CALCULATIONS
------------------------------------------------------------------------------

GBWName                                 ... 5.gbw
Number of atoms                         ...     10
Number of basis functions               ...     95
Max core memory                         ...   4096 MB

Electric properties:
Dipole moment                           ... YES
Quadrupole moment                       ...  NO
Static polarizability (Dipole/Dipole)   ...  NO
Static polarizability (Dipole/Quad.)    ...  NO
Static polarizability (Quad./Quad.)     ...  NO
Static polarizability (Velocity)        ...  NO
Static hyperpolarizability              ...  NO

Atomic electric properties:
Dipole moment                           ...  NO
Quadrupole moment                       ...  NO
Static polarizability                   ...  NO

Choice of electric origin               ... Center of mass
Position of electric origin             ...    -8.765979    -4.008741     1.394770

General magnetic properties:
Magnetizability                         ...  NO

EPR properties:
g-Tensor (aka g-matrix)                 ...  NO
Zero-Field splitting spin-orbit         ...  NO
Zero-field splitting spin-spin          ...  NO
Hyperfine couplings                     ...  NO (   0 nuclei)
Quadrupole couplings                    ...  NO (   0 nuclei)
Contact density                         ...  NO (   0 nuclei)

NMR properties:
Chemical shifts                         ...  NO (   0 nuclei)
Spin-rotation constants                 ...  NO (   0 nuclei)
Spin-spin couplings                     ...  NO (   0 nuclei,    0 pairs)

Choice of magnetic origin               ... GIAO
Position of magnetic origin             ...     0.000000     0.000000     0.000000

Properties with geometric perturbations:
SCF Hessian                             ...  NO
IR spectrum                             ...  NO
VCD spectrum                            ...  NO
X-ray spectroscopy properties:
SCF XES/XAS/RIXS spectra                ...  NO

SCF SOC stabilization energy            ...  NO
Diagonal Born-Oppenheimer correction    ...  NO

-------------
DIPOLE MOMENT
-------------

Method             : SCF
Type of density    : Electron Density
Multiplicity       :   1
Irrep              :   0
Energy             :  -282.8395043192093681 Eh
Basis              : AO
                                X                 Y                 Z
Electronic contribution:      2.066367829      -3.261680505       1.334352792
Nuclear contribution   :     -3.373682279       5.069921358      -1.872322006
                        -----------------------------------------
Total Dipole Moment    :     -1.307314451       1.808240853      -0.537969214
                        -----------------------------------------
Magnitude (a.u.)       :      2.295259665
Magnitude (Debye)      :      5.834086426



--------------------
Rotational spectrum 
--------------------
 
Rotational constants in cm-1:             0.339525             0.138944             0.103063 
Rotational constants in MHz :         10178.691208          4165.448568          3089.740760 

Dipole components along the rotational axes: 
x,y,z [a.u.] :    -2.265397     0.367057     0.038266 
x,y,z [Debye]:    -5.758180     0.932986     0.097263 

 

Dipole moment calculation done in   0.0 sec 

Maximum memory used throughout the entire PROP-calculation: 3.7 MB

--------------------------------
SUGGESTED CITATIONS FOR THIS RUN
--------------------------------

Below you find a list of papers that are relevant to this ORCA run
We neither can nor want to force you to cite these papers, but we appreciate if you do
You receive ORCA, which is the product of decades of hard work by many enthusiastic individuals, for free
The only thing we kindly ask in return is that you cite our papers,
We deeply appreciate it, if you show your appreciation for ORCA by not just citing the generic ORCA reference.

Please note that relegating all ORCA citations to the supporting information does *not* help us.
SI sections are not indexed - citations you put there will not count into any citation statistics
But we need these citations in order to attract the funding resources that allow us to do what we are doing

Therefore, if you are a happy ORCA user, please consider citing a few of the papers listed below in the main body of your paper

In addition to the list printed below, the program has created the file 5.bibtex that contains the list in bibtex format
You can import this file easily into all common literature databanks and citation aid programs


List of essential papers. We consider these as the minimum necessary citations

  1. Neese, F.
     Software update: the ORCA program system, version 6.0
     WIRES Comput. Molec. Sci. 2025 15(1), e70019
     doi.org/10.1002/wcms.7019

List of papers to cite with high priority. The work reported in these papers was absolutely
necessary for this run to complete.
Our perspective: the developers of density functionals and basis sets usually get cited in chemistry papers
Good! But without the algorithms to do something with them, the functionals or basis sets would not do anything.
Hence, in our opinion, the algorithm design and method developments papers are equally worthy of getting cited

  1. Neese, F.
     The SHARK Integral Generation and Digestion System
     J. Comp. Chem. 2022 44(3), 381
     doi.org/10.1002/jcc.26942

List of suggested additional citations. These are papers that are important in the 'surrounding' of 
of this run, or papers that preceded the highly important papers. If you like your results we are grateful for a citation.

  1. Neese, F.
     The ORCA program system
     WIRES Comput. Molec. Sci. 2012 2(1), 73-78
     doi.org/10.1002/wcms.81
  2. Neese, F.
     Software update: the ORCA program system, version 4.0
     WIRES Comput. Molec. Sci. 2018 8(1), 1-6
     doi.org/10.1002/wcms.1327
  3. Neese, F.; Wennmohs, F.; Becker, U.; Riplinger, C.
     The ORCA quantum chemistry program package
     J. Chem. Phys. 2020 152(22), 224108
     doi.org/10.1063/5.0004608
  4. Neese, F.
     Software update: The ORCA program system—Version 5.0
     WIRES Comput. Molec. Sci. 2022 12(1), e1606
     doi.org/10.1002/wcms.1606

List of optional additional citations

  1. Neese, F.
     Approximate second-order SCF convergence for spin unrestricted wavefunctions
     Chem. Phys. Lett. 2000 325(1-3), 93-98
     doi.org/10.1016/s0009-2614(00)00662-x

Timings for individual modules:

Sum of individual times          ...        3.893 sec (=   0.065 min)
Startup calculation              ...        0.167 sec (=   0.003 min)   4.3 %
SCF iterations                   ...        2.526 sec (=   0.042 min)  64.9 %
Property calculations            ...        0.021 sec (=   0.000 min)   0.5 %
MP2 module                       ...        1.179 sec (=   0.020 min)  30.3 %
                             ****ORCA TERMINATED NORMALLY****
TOTAL RUN TIME: 0 days 0 hours 0 minutes 3 seconds 928 msec
