
                                 *****************
                                 * O   R   C   A *
                                 *****************

                                            #,                                       
                                            ###                                      
                                            ####                                     
                                            #####                                    
                                            ######                                   
                                           ########,                                 
                                     ,,################,,,,,                         
                               ,,#################################,,                 
                          ,,##########################################,,             
                       ,#########################################, ''#####,          
                    ,#############################################,,   '####,        
                  ,##################################################,,,,####,       
                ,###########''''           ''''###############################       
              ,#####''   ,,,,##########,,,,          '''####'''          '####       
            ,##' ,,,,###########################,,,                        '##       
           ' ,,###''''                  '''############,,,                           
         ,,##''                                '''############,,,,        ,,,,,,###''
      ,#''                                            '''#######################'''  
     '                                                          ''''####''''         
             ,#######,   #######,   ,#######,      ##                                
            ,#'     '#,  ##    ##  ,#'     '#,    #''#        ,####,    ,#,          
            ##       ##  ##   ,#'  ##            #'  '#       #'       ,# #          
            ##       ##  #######   ##           ,######,      #####,      #          
            '#,     ,#'  ##    ##  '#,     ,#' ,#      #,     #,   #      #          
             '#######'   ##     ##  '#######'  #'      '#     '####' #    #          



                #########################################################
                #                        -***-                          #
                #          Department of theory and spectroscopy        #
                #                                                       #
                #                      Frank Neese                      #
                #                                                       #
                #     Directorship, Architecture, Infrastructure        #
                #                    SHARK, DRIVERS                     #
                #        Core code/Algorithms in most modules           #
                #                                                       #
                #        Max Planck Institute fuer Kohlenforschung      #
                #                Kaiser Wilhelm Platz 1                 #
                #                 D-45470 Muelheim/Ruhr                 #
                #                      Germany                          #
                #                                                       #
                #                  All rights reserved                  #
                #                        -***-                          #
                #########################################################


                         Program Version 6.1.0  -  RELEASE   -
                                (GIT: $679e74b$)
                          ($2025-06-10 18:02:51 +0200$)


 With contributions from (in alphabetic order):
[Max-Planck-Institut fuer Kohlenforschung]                               
  Daniel Aravena         : Magnetic Suceptibility                        
  Michael Atanasov       : Ab Initio Ligand Field Theory (pilot matlab implementation)
  Alexander A. Auer      : GIAO ZORA, VPT2 properties, NMR spectrum      
  Ute Becker             : All parallelization in ORCA, NUMFREQ, NUMCALC 
  Giovanni Bistoni       : ED, misc. LED, open-shell LED, HFLD           
  Dmytro Bykov           : pre 5.0 version of the SCF Hessian            
  Marcos Casanova-Páez   : Triplet and SCS-CIS(D). UHF-(DLPNO)-IP/EA/STEOM-CCSD. UHF-CVS-IP/STEOM-CCSD   
  Vijay G. Chilkuri      : MRCI spin determinant printing, contributions to CSF-ICE 
  Pauline Colinet        : FMM embedding                                 
  Dipayan Datta          : RHF DLPNO-CCSD density                        
  Achintya Kumar Dutta   : EOM-CC, STEOM-CC                              
  Nicolas Foglia         : Exact transition moments, OPA infrastructure, MCD improvements    
  Dmitry Ganyushin       : Spin-Orbit,Spin-Spin,Magnetic field MRCI      
  Miquel Garcia-Rates    : C-PCM and meta-GGA Hessian, CCSD/C-PCM, Gaussian charge scheme 
  Tiago L. C. Gouveia    : GS-ROHF, GS-ROCIS                             
  Yang Guo               : DLPNO-NEVPT2, F12-NEVPT2, CIM, IAO-localization        
  Andreas Hansen         : Spin unrestricted coupled pair/coupled cluster methods 
  Ingolf Harden          : AUTO-CI MPn and infrastructure                
  Benjamin Helmich-Paris : MC-RPA, TRAH-(SCF,CASSCF), AVAS, COSX integrals, SCF dyn. polar., MC-PDFT, srDFT 
  Lee Huntington         : MR-EOM, pCC                                   
  Robert Izsak           : Overlap fitted RIJCOSX, COSX-SCS-MP3, EOM     
  Riya Kayal             : Wick's Theorem for AUTO-CI, AUTO-CI UHF-CCSDT 
  Emily Kempfer          : AUTO-CI RHF CISDT and CCSDT, approximate NEVPT4
  Christian Kollmar      : KDIIS, OOCD, Brueckner-CCSD(T), CCSD density, CASPT2, CASPT2-K, improved NEVPT2 
  Axel Koslowski         : Symmetry handling                             
  Simone Kossmann        : meta-GGA functionals, TD-DFT gradient, OOMP2, (MP2 Hessian; deprecated post 5.0) 
  Lucas Lang             : DCDCAS, Hyperfine gauge corrections, ICE-SOC+SSC
  Marvin Lechner         : AUTO-CI (C++ implementation), FIC-MRCC        
  Spencer Leger          : CASSCF response                               
  Dagmar Lenk            : GEPOL surface, SMD, ORCA-2-JSON               
  Dimitrios Liakos       : Extrapolation schemes; Compound Job, Property file
  Dimitrios Manganas     : Further ROCIS development; embedding schemes. LFT, Crystal Embedding 
  Dimitrios Pantazis     : SARC Basis sets                               
  Anastasios Papadopoulos: AUTO-CI, single reference methods and gradients 
  Taras Petrenko         : pre 6.0 DFT Hessian and TD-DFT gradient,  ECA, NRVS 
  Petra Pikulova         : Analytic Raman intensities                    
  Peter Pinski           : DLPNO-MP2, DLPNO-MP2 Gradient                 
  Shashank Vittal Rao    : ES-AILFT, MagRelax                            
  Christoph Reimann      : Effective Core Potentials                     
  Marius Retegan         : Local ZFS, SOC                                
  Christoph Riplinger    : Optimizer, TS searches, QM/MM, DLPNO-CCSD(T), (RO)-DLPNO pert. Triples 
  Michael Roemelt        : Original ROCIS implementation, recursive CI coupling coefficients
  Masaaki Saitow         : Open-shell DLPNO-CCSD energy and density      
  Barbara Sandhoefer     : DKH picture change effects                    
  Yorick L. A. Schmerwitz: GMF and freeze-and-release deltaSCF, NEB S-IDPP initial path                    
  Kantharuban Sivalingam : CASSCF convergence/infrastructure, NEVPT2, NEVPT3, NEVPT4(SD), FIC-MRCI and CEPA variants
  Bernardo de Souza      : ESD, SOC TD-DFT                               
  Georgi L. Stoychev     : AutoAux, RI-MP2 NMR, DLPNO-MP2 response, X2C  
  Van Anh Tran           : RI-MP2 g-tensors                              
  Willem Van den Heuvel  : Paramagnetic NMR                              
  Zikuan Wang            : NOTCH, Electric field optimization            
  Frank Wennmohs         : Technical directorship and infrastructure     
  Hang Xu                : AUTO-CI-Response properties                   
                                                                         
[FACCTs GmbH]                                                            
  Markus Bursch, Nicolas Foglia, Miquel Garcia-Rates, Ingolf Harden, Hagen Neugebauer, Anastasios Papadopoulos, 
  Christoph Riplinger, Bernardo de Souza, Georgi L. Stoychev                                                    
                                                                 
  APM, various basis sets, CI-OPT, improved COSX, DLPNO-Multilevel,           
  DOCKER, DRACO, updates on ESD, Fragmentator, GOAT, IRC, LR-CPCM, L-BFGS, MBIS, meta-GGA TD-DFT gradient, ML-optimized integration grids, 
  MM, NACMEs, nearIR, NEB, NEB-TS, NL-DFT gradient (VV10), 2- and 3-layer-ONIOM, interface openCOSMO-RS, QMMM,   
  Crystal-QMMM, RESP, rigid body optimization, SF, symmetry and pop. for TD-DFT, various functionals, SOLVATOR                                   
                                                                         
[Other institutions]                                                     
  V. Asgeirsson          : NEB                                           
  Christoph Bannwarth    : sTDA-DFT, sTD-DFT, PBEh-3c, B97-3c, D3        
  Giovanni Bistoni       : ETS/NOCV, ADLD/ADEX, COVALED                  
  Martin Brehm           : Molecular dynamics                            
  Ronald Cardenas        : ETS/NOCV                                      
  Martina Colucci        : COVALED                                       
  Sebastian Ehlert       : rSCAN, r2SCAN, r2SCAN-3c, D4, dhf basis sets  
  Marvin Friede          : D4 for Fr, Ra, Ac-Lr                          
  Lars Goerigk           : TD-DFT with DH, B97 family of functionals     
  Stefan Grimme          : VdW corrections, initial TS optimization, DFT functionals, gCP, sTDA/sTD-DF 
  Waldemar Hujo          : DFT-NL                                        
  H. Jonsson             : NEB                                           
  Holger Kruse           : gCP                                           
  Marcel Mueller         : wB97X-3c, vDZP basis set                      
  Hagen Neugebauer       : wr2SCAN, Native XTB                           
  Gianluca Regni         : ADLD/ADEX                                     
  Tobias Risthaus        : pre 6.0 range-separated hybrid DFT and stability analysis
  Lukas Wittmann         : regularized MP2, r2SCAN double-hybrids, wr2SCAN        
                                                                         
We gratefully acknowledge several colleagues who have allowed us to      
interface, adapt or use parts of their codes:                            
  Ed Valeev, F. Pavosevic, A. Kumar             : LibInt (2-el integral package), F12 methods 
  Garnet Chan, S. Sharma, J. Yang, R. Olivares  : DMRG                   
  Ulf Ekstrom                                   : XCFun DFT Library      
  Mihaly Kallay                                 : mrcc  (arbitrary order and MRCC methods)
  Frank Weinhold                                : gennbo (NPA and NBO analysis)           
  Simon Mueller                                 : openCOSMO-RS                            
  Christopher J. Cramer and Donald G. Truhlar   : smd solvation model                     
  S Lehtola, MJT Oliveira, MAL Marques          : LibXC Library                           
  Liviu Ungur et al                             : ANISO software                          


 Your calculation uses the libint2 library for the computation of 2-el integrals
 For citations please refer to: http://libint.valeyev.net

 Your ORCA version has been built with support for libXC version: 7.0.0
 For citations please refer to: https://libxc.gitlab.io

 This ORCA versions uses:
   CBLAS   interface :  Fast vector & matrix operations
   LAPACKE interface :  Fast linear algebra routines
   SCALAPACK package :  Parallel linear algebra routines
   Shared memory     :  Shared parallel matrices
   BLAS/LAPACK       :  OpenBLAS 0.3.29  USE64BITINT DYNAMIC_ARCH NO_AFFINITY Haswell SINGLE_THREADED
        Core in use  :  Haswell
   Copyright (c) 2011-2014, The OpenBLAS Project


  ***********************************
  * Starting time: Sun Aug 31 22:03:20 2025
  * Host name:     chemlab03
  * Process ID:    95126
  * Working dir.:  /home/vivek/mm-project/vivek/xtb-goat/MP2-opt/f/2
  ***********************************



***************************************
The coordinates will be read from file: /home/vivek/mm-project/vivek/xtb-goat/xtb-goat/f/F_CONF/2.xyz
***************************************


================================================================================

----- Orbital basis set information -----
Your calculation utilizes the basis: 6-31G**
   H-He, Li-Ne : W. J. Hehre, R. Ditchfield and J.A. Pople, J. Chem. Phys. 56, 2257 (1972).
                 Note: He and Ne are unpublished basis sets taken from the Gaussian program.
                 Note: Li and B from J. D. Dill and J. A. Pople, J. Chem. Phys. 62, 2921 (1975).
   Na - Ar     : M. M. Francl, W. J. Pietro, W. J. Hehre, J. S. Binkley, M. S. Gordon, 
                 D. J. DeFrees and J. A. Pople, J. Chem. Phys. 77, 3654 (1982).
   K - Zn      : V. A. Rassolov, J. A. Pople, M. A. Ratner, and T. L. Windus, J. Chem. Phys. 109, 1223 (1998).

================================================================================
                                        WARNINGS
                       Please study these warnings very carefully!
================================================================================


WARNING: The frozen-core approximation for MP2-gradient calculations is turned on by default.

WARNING: Geometry Optimization
  ===> : Switching off AutoStart
         For restart on a previous wavefunction, please use MOREAD

WARNING: Post HF methods need fully converged wavefunctions
  ===> : Setting SCFConvForced true
         You can overwrite this default with %scf ConvForced false 


================================================================================
                                       INPUT FILE
================================================================================
NAME = 2.inp
|  1> ! MP2 6-31G** opt
|  2> 
|  3> * xyzfile 0 1 /home/vivek/mm-project/vivek/xtb-goat/xtb-goat/f/F_CONF/2.xyz
|  4> 
|  5>                          ****END OF INPUT****
================================================================================

                       *****************************
                       * Geometry Optimization Run *
                       *****************************

Geometry optimization settings:
Update method            Update   .... BFGS
Choice of coordinates    CoordSys .... (2022) Redundant Internals
Initial Hessian          InHess   .... Almloef's Model
Max. no of cycles        MaxIter  .... 69

Convergence Tolerances:
Energy Change            TolE     ....  5.0000e-06 Eh
Max. Gradient            TolMAXG  ....  3.0000e-04 Eh/bohr
RMS Gradient             TolRMSG  ....  1.0000e-04 Eh/bohr
Max. Displacement        TolMAXD  ....  4.0000e-03 bohr
RMS Displacement         TolRMSD  ....  2.0000e-03 bohr
Strict Convergence                .... False

------------------------------------------------------------------------------
                        ORCA OPTIMIZATION COORDINATE SETUP
------------------------------------------------------------------------------

The optimization will be done in redundant internal coordinates (2022)
Making redundant internal coordinates   ...  (2022 redundants) done
Evaluating the initial hessian          ...  (Almloef) done
Evaluating the coordinates              ...  done
Calculating the B-matrix                .... done
Calculating the G-matrix                .... done
The number of degrees of freedom        ....  107

    -----------------------------------------------------------------
                    Redundant Internal Coordinates


    -----------------------------------------------------------------
         Definition                    Initial Value    Approx d2E/dq
    -----------------------------------------------------------------
      1. B(C   1,C   0)                  1.3842         0.638335   
      2. B(H   4,C   2)                  1.0808         0.372410   
      3. B(C   5,C   1)                  1.3841         0.638390   
      4. B(H   7,C   1)                  1.0803         0.373105   
      5. B(C   8,C   5)                  1.3897         0.625492   
      6. B(C   8,C   6)                  1.5025         0.413308   
      7. B(C   8,C   2)                  1.3900         0.624743   
      8. B(H   9,C   0)                  1.0800         0.373518   
      9. B(C  10,H   3)                  1.0804         0.373047   
     10. B(C  10,C   2)                  1.3836         0.639664   
     11. B(C  10,C   0)                  1.3847         0.637110   
     12. B(H  11,C   5)                  1.0805         0.372858   
     13. B(C  12,C   6)                  1.5475         0.350335   
     14. B(H  13,C   6)                  1.0901         0.360028   
     15. B(H  14,C   6)                  1.0906         0.359300   
     16. B(C  15,C  12)                  1.5257         0.379532   
     17. B(N  17,C  12)                  1.4459         0.455632   
     18. B(O  18,H  16)                  0.9698         0.501605   
     19. B(O  18,C  15)                  1.3398         0.672982   
     20. B(H  19,N  17)                  1.0138         0.426657   
     21. B(O  20,C  15)                  1.2021         1.116072   
     22. B(H  21,C  12)                  1.0972         0.350690   
     23. B(H  22,N  17)                  1.0151         0.424630   
     24. A(C   1,C   0,C  10)          119.6805         0.438497   
     25. A(C   1,C   0,H   9)          120.1841         0.356864   
     26. A(H   9,C   0,C  10)          120.1347         0.356748   
     27. A(C   0,C   1,C   5)          120.1248         0.438655   
     28. A(C   0,C   1,H   7)          120.0496         0.356797   
     29. A(C   5,C   1,H   7)          119.8256         0.356803   
     30. A(C   8,C   2,C  10)          120.5848         0.437113   
     31. A(H   4,C   2,C   8)          119.5269         0.355384   
     32. A(H   4,C   2,C  10)          119.8881         0.356810   
     33. A(C   1,C   5,C   8)          120.6108         0.437051   
     34. A(C   8,C   5,H  11)          119.3878         0.355528   
     35. A(C   1,C   5,H  11)          120.0010         0.356763   
     36. A(C  12,C   6,H  14)          108.1580         0.320806   
     37. A(H  13,C   6,H  14)          109.4161         0.290729   
     38. A(C   8,C   6,H  14)          110.2775         0.329643   
     39. A(C  12,C   6,H  13)          107.3739         0.320912   
     40. A(C   8,C   6,H  13)          110.3503         0.329753   
     41. A(C   8,C   6,C  12)          111.1854         0.365649   
     42. A(C   5,C   8,C   6)          120.6160         0.404433   
     43. A(C   2,C   8,C   6)          120.5133         0.404347   
     44. A(C   2,C   8,C   5)          118.8404         0.435352   
     45. A(C   0,C  10,H   3)          120.0343         0.356671   
     46. A(C   0,C  10,C   2)          120.1563         0.438661   
     47. A(C   2,C  10,H   3)          119.8093         0.356914   
     48. A(C  15,C  12,N  17)          115.2291         0.374623   
     49. A(C   6,C  12,N  17)          110.1801         0.369494   
     50. A(C   6,C  12,C  15)          107.8238         0.360362   
     51. A(N  17,C  12,H  21)          108.2708         0.331652   
     52. A(C  15,C  12,H  21)          107.0541         0.323752   
     53. A(C   6,C  12,H  21)          108.0315         0.319537   
     54. A(C  12,C  15,O  20)          124.9010         0.438829   
     55. A(C  12,C  15,O  18)          112.5697         0.400984   
     56. A(O  18,C  15,O  20)          122.5290         0.483975   
     57. A(C  12,N  17,H  19)          110.6459         0.339707   
     58. A(H  19,N  17,H  22)          107.6190         0.301666   
     59. A(C  12,N  17,H  22)          109.8785         0.339437   
     60. A(C  15,O  18,H  16)          110.2990         0.373063   
     61. D(C   5,C   1,C   0,C  10)      0.3203         0.028301   
     62. D(C   5,C   1,C   0,H   9)   -179.9597         0.028301   
     63. D(H   7,C   1,C   0,H   9)      0.0858         0.028301   
     64. D(H   7,C   1,C   0,C  10)   -179.6341         0.028301   
     65. D(H  11,C   5,C   1,H   7)      0.2549         0.028306   
     66. D(H  11,C   5,C   1,C   0)   -179.6997         0.028306   
     67. D(C   8,C   5,C   1,C   0)      0.0845         0.028306   
     68. D(C   8,C   5,C   1,H   7)   -179.9609         0.028306   
     69. D(C   6,C   8,C   5,C   1)    177.5414         0.027102   
     70. D(C   6,C   8,C   2,C  10)   -177.5619         0.027033   
     71. D(C   2,C   8,C   5,C   1)     -0.4647         0.027102   
     72. D(C   2,C   8,C   5,H  11)    179.3208         0.027102   
     73. D(C   5,C   8,C   6,C  12)    -89.4086         0.012645   
     74. D(C   5,C   8,C   2,C  10)      0.4463         0.027033   
     75. D(C   5,C   8,C   2,H   4)   -179.4211         0.027033   
     76. D(C   2,C   8,C   6,H  13)   -152.4021         0.012645   
     77. D(C   2,C   8,C   6,C  12)     88.5640         0.012645   
     78. D(C   2,C   8,C   6,H  14)    -31.4033         0.012645   
     79. D(C   6,C   8,C   5,H  11)     -2.6731         0.027102   
     80. D(C   6,C   8,C   2,H   4)      2.5707         0.027033   
     81. D(C   5,C   8,C   6,H  13)     29.6253         0.012645   
     82. D(H   3,C  10,C   2,C   8)   -179.9385         0.028427   
     83. D(H   3,C  10,C   2,H   4)     -0.0716         0.028427   
     84. D(C   0,C  10,C   2,C   8)     -0.0479         0.028427   
     85. D(C   0,C  10,C   2,H   4)    179.8191         0.028427   
     86. D(H   3,C  10,C   0,H   9)     -0.1683         0.028185   
     87. D(H   3,C  10,C   0,C   1)    179.5518         0.028185   
     88. D(C   2,C  10,C   0,H   9)    179.9413         0.028185   
     89. D(C   2,C  10,C   0,C   1)     -0.3386         0.028185   
     90. D(C  15,C  12,C   6,H  13)    179.4739         0.010000   
     91. D(C  15,C  12,C   6,C   8)    -59.7248         0.010000   
     92. D(N  17,C  12,C   6,H  14)   -171.9821         0.010000   
     93. D(N  17,C  12,C   6,H  13)    -54.0004         0.010000   
     94. D(N  17,C  12,C   6,C   8)     66.8008         0.010000   
     95. D(C  15,C  12,C   6,H  14)     61.4923         0.010000   
     96. D(O  20,C  15,C  12,N  17)    166.6660         0.010750   
     97. D(O  20,C  15,C  12,C   6)    -69.8247         0.010750   
     98. D(O  18,C  15,C  12,H  21)   -133.9727         0.010750   
     99. D(O  18,C  15,C  12,N  17)    -13.5051         0.010750   
    100. D(O  18,C  15,C  12,C   6)    110.0042         0.010750   
    101. D(H  22,N  17,C  12,C  15)     60.5755         0.017716   
    102. D(H  22,N  17,C  12,C   6)    -61.6785         0.017716   
    103. D(H  19,N  17,C  12,H  21)     61.6778         0.017716   
    104. D(H  19,N  17,C  12,C  15)    -58.1223         0.017716   
    105. D(H  19,N  17,C  12,C   6)    179.6236         0.017716   
    106. D(H  16,O  18,C  15,O  20)      1.7901         0.033671   
    107. D(H  16,O  18,C  15,C  12)   -178.0434         0.033671   
    -----------------------------------------------------------------

Number of atoms                         .... 23
Number of degrees of freedom            .... 107


         *************************************************************
         *                GEOMETRY OPTIMIZATION CYCLE   1            *
         *************************************************************
---------------------------------
CARTESIAN COORDINATES (ANGSTROEM)
---------------------------------
  C     -5.893272    0.063541   -0.864728
  C     -5.178774    0.805410   -1.789410
  C     -4.941862    1.372771    0.906524
  H     -6.335934   -0.218430    1.210526
  H     -4.855308    1.596335    1.960452
  C     -4.345503    1.826417   -1.366268
  C     -3.268301    3.189567    0.449481
  H     -5.270865    0.589150   -2.843872
  C     -4.214148    2.118056   -0.013881
  H     -6.543249   -0.733787   -1.193799
  C     -5.775321    0.352237    0.484383
  H     -3.792397    2.407450   -2.090149
  C     -1.857308    2.612842    0.716300
  H     -3.165696    3.960727   -0.314065
  H     -3.631505    3.640505    1.373687
  C     -1.987148    1.540685    1.793964
  H     -1.907754   -0.351236    2.020461
  N     -1.256237    2.171786   -0.522631
  O     -1.787477    0.304888    1.316537
  H     -0.328515    1.798077   -0.356705
  O     -2.242542    1.753940    2.949079
  H     -1.235874    3.415013    1.133681
  H     -1.816513    1.431896   -0.933898

----------------------------
CARTESIAN COORDINATES (A.U.)
----------------------------
  NO LB      ZA    FRAG     MASS         X           Y           Z
   0 C     6.0000    0    12.011  -11.136669    0.120076   -1.634100
   1 C     6.0000    0    12.011   -9.786465    1.522004   -3.381495
   2 C     6.0000    0    12.011   -9.338767    2.594161    1.713083
   3 H     1.0000    0     1.008  -11.973180   -0.412772    2.287563
   4 H     1.0000    0     1.008   -9.175203    3.016636    3.704717
   5 C     6.0000    0    12.011   -8.211810    3.451428   -2.581872
   6 C     6.0000    0    12.011   -6.176194    6.027407    0.849395
   7 H     1.0000    0     1.008   -9.960491    1.113332   -5.374140
   8 C     6.0000    0    12.011   -7.963586    4.002546   -0.026231
   9 H     1.0000    0     1.008  -12.364949   -1.386656   -2.255952
  10 C     6.0000    0    12.011  -10.913775    0.665632    0.915351
  11 H     1.0000    0     1.008   -7.166592    4.549421   -3.949810
  12 C     6.0000    0    12.011   -3.509803    4.937556    1.353610
  13 H     1.0000    0     1.008   -5.982299    7.484689   -0.593498
  14 H     1.0000    0     1.008   -6.862549    6.879558    2.595893
  15 C     6.0000    0    12.011   -3.755166    2.911473    3.390102
  16 H     1.0000    0     1.008   -3.605132   -0.663740    3.818119
  17 N     7.0000    0    14.007   -2.373944    4.104082   -0.987629
  18 O     8.0000    0    15.999   -3.377842    0.576154    2.487894
  19 H     1.0000    0     1.008   -0.620802    3.397874   -0.674074
  20 O     8.0000    0    15.999   -4.237790    3.314466    5.572951
  21 H     1.0000    0     1.008   -2.335463    6.453439    2.142346
  22 H     1.0000    0     1.008   -3.432712    2.705891   -1.764812

--------------------------------
INTERNAL COORDINATES (ANGSTROEM)
--------------------------------
 C      0   0   0     0.000000000000     0.00000000     0.00000000
 C      1   0   0     1.384164669828     0.00000000     0.00000000
 C      1   2   0     2.399291101139    89.77207791     0.00000000
 H      3   1   2     2.137234383594    55.95066731   179.64795079
 H      3   1   2     1.080849661750   149.82272216   179.39379828
 C      2   1   3     1.384140901820   120.12482341     0.15149820
 C      3   1   2     2.512059710166   121.63523510   358.20377971
 H      2   1   3     1.080342649148   120.04960359   180.19704552
 C      6   2   1     1.389697210219   120.61078901     0.08453745
 H      1   2   3     1.080041584508   120.18414457   179.88878249
 C      4   3   1     1.080384898747    34.17482272     0.06586123
 H      6   2   1     1.080522514282   120.00102887   180.30032785
 C      7   3   1     1.547483616900   107.85099205   261.14852178
 H      7   3   1     1.090054177458   134.57171196    40.40510459
 H      7   3   1     1.090605584641    85.58324550   153.48057992
 C     13   7   3     1.525693209788   107.82381476   330.31899126
 H     16  13   7     1.907084418955   141.03165445   108.52056060
 N     13   7   3     1.445947815478   110.18012800    96.84463945
 O     17  16  13     0.969780684702    41.21572321     2.87350178
 H     18  13   7     1.013833685638   110.64593607   179.62360717
 O     16  13   7     1.202078412632   124.90102382   290.17532792
 H     13   7   3     1.097207882898   108.03153825   214.93783486
 H     18  13   7     1.015129803047   109.87846826   298.32146326

---------------------------
INTERNAL COORDINATES (A.U.)
---------------------------
 C      0   0   0     0.000000000000     0.00000000     0.00000000
 C      1   0   0     2.615692150225     0.00000000     0.00000000
 C      1   2   0     4.534003096707    89.77207791     0.00000000
 H      3   1   2     4.038787668992    55.95066731   179.64795079
 H      3   1   2     2.042509852649   149.82272216   179.39379828
 C      2   1   3     2.615647235199   120.12482341     0.15149820
 C      3   1   2     4.747104884271   121.63523510   358.20377971
 H      2   1   3     2.041551737684   120.04960359   180.19704552
 C      6   2   1     2.626147136388   120.61078901     0.08453745
 H      1   2   3     2.040982807967   120.18414457   179.88878249
 C      4   3   1     2.041631577856    34.17482272     0.06586123
 H      6   2   1     2.041891633528   120.00102887   180.30032785
 C      7   3   1     2.924320232670   107.85099205   261.14852178
 H      7   3   1     2.059903866533   134.57171196    40.40510459
 H      7   3   1     2.060945875097    85.58324550   153.48057992
 C     13   7   3     2.883142330882   107.82381476   330.31899126
 H     16  13   7     3.603867266094   141.03165445   108.52056060
 N     13   7   3     2.732445375196   110.18012800    96.84463945
 O     17  16  13     1.832619904054    41.21572321     2.87350178
 H     18  13   7     1.915868011199   110.64593607   179.62360717
 O     16  13   7     2.271598991373   124.90102382   290.17532792
 H     13   7   3     2.073422410656   108.03153825   214.93783486
 H     18  13   7     1.918317318140   109.87846826   298.32146326

---------------------
BASIS SET INFORMATION
---------------------
There are 4 groups of distinct atoms

 Group   1 Type C   : 10s4p1d contracted to 3s2p1d pattern {631/31/1}
 Group   2 Type H   : 4s1p contracted to 2s1p pattern {31/1}
 Group   3 Type N   : 10s4p1d contracted to 3s2p1d pattern {631/31/1}
 Group   4 Type O   : 10s4p1d contracted to 3s2p1d pattern {631/31/1}

Atom   0C    basis set group =>   1
Atom   1C    basis set group =>   1
Atom   2C    basis set group =>   1
Atom   3H    basis set group =>   2
Atom   4H    basis set group =>   2
Atom   5C    basis set group =>   1
Atom   6C    basis set group =>   1
Atom   7H    basis set group =>   2
Atom   8C    basis set group =>   1
Atom   9H    basis set group =>   2
Atom  10C    basis set group =>   1
Atom  11H    basis set group =>   2
Atom  12C    basis set group =>   1
Atom  13H    basis set group =>   2
Atom  14H    basis set group =>   2
Atom  15C    basis set group =>   1
Atom  16H    basis set group =>   2
Atom  17N    basis set group =>   3
Atom  18O    basis set group =>   4
Atom  19H    basis set group =>   2
Atom  20O    basis set group =>   4
Atom  21H    basis set group =>   2
Atom  22H    basis set group =>   2
------------------------------------------------------------------------------
                             ORCA STARTUP CALCULATIONS
------------------------------------------------------------------------------
------------------------------------------------------------------------------
                   ___                                                        
                  /   \      - P O W E R E D   B Y -                         
                 /     \                                                     
                 |  |  |   _    _      __       _____    __    __             
                 |  |  |  | |  | |    /  \     |  _  \  |  |  /  |          
                  \  \/   | |  | |   /    \    | | | |  |  | /  /          
                 / \  \   | |__| |  /  /\  \   | |_| |  |  |/  /          
                |  |  |   |  __  | /  /__\  \  |    /   |      \           
                |  |  |   | |  | | |   __   |  |    \   |  |\   \          
                \     /   | |  | | |  |  |  |  | |\  \  |  | \   \       
                 \___/    |_|  |_| |__|  |__|  |_| \__\ |__|  \__/        
                                                                              
                      - O R C A' S   B I G   F R I E N D -                    
                                      &                                       
                       - I N T E G R A L  F E E D E R -                       
                                                                              
 v1 FN, 2020, v2 2021, v3 2022-2024                                           
------------------------------------------------------------------------------


----------------------
SHARK INTEGRAL PACKAGE
----------------------

Number of atoms                             ...     23
Number of basis functions                   ...    223
Number of shells                            ...    105
Maximum angular momentum                    ...      2
Integral batch strategy                     ... SHARK/LIBINT Hybrid
RI-J (if used) integral strategy            ... SPLIT-RIJ (Revised 2003 algorithm where possible)
Printlevel                                  ...      1
Contraction scheme used                     ... SEGMENTED contraction
Prescreening option                         ... SCHWARTZ
   Thresh                                   ... 2.500e-11
   Tcut                                     ... 2.500e-12
   Tpresel                                  ... 2.500e-12 
Coulomb Range Separation                    ... NOT USED
Exchange Range Separation                   ... NOT USED
Multipole approximations                    ... NOT USED
Finite Nucleus Model                        ... NOT USED
CABS basis                                  ... NOT available
Auxiliary Coulomb fitting basis             ... NOT available
Auxiliary J/K fitting basis                 ... NOT available
Auxiliary Correlation fitting basis         ... NOT available
Auxiliary 'external' fitting basis          ... NOT available

Checking pre-screening integrals            ... done (  0.0 sec) Dimension = 105
   => SHARK Basis and OBASIS are compatible. Storing Pre-screening
Shell pair information
Shell pair cut-off parameter TPreSel        ...   2.5e-12
Total number of shell pairs                 ...      5565
Shell pairs after pre-screening             ...      4910
Total number of primitive shell pairs       ...     28015
Primitive shell pairs kept                  ...     15660
          la=0 lb=0:   1497 shell pairs
          la=1 lb=0:   1787 shell pairs
          la=1 lb=1:    565 shell pairs
          la=2 lb=0:    615 shell pairs
          la=2 lb=1:    375 shell pairs
          la=2 lb=2:     71 shell pairs

Checking whether 4 symmetric matrices of dimension 223 fit in memory
:Max Core in MB      =   4096.00
 MB in use           =      7.84
 MB left             =   4088.16
 MB needed           =      0.76
 Data fit in memory  = YES
Calculating Nuclear repulsion               ... done (  0.0 sec) ENN=    703.130280222795 Eh

Diagonalization of the overlap matrix:
Smallest eigenvalue                        ... 4.383e-04
Time for diagonalization                   ...    0.003 sec
Threshold for overlap eigenvalues          ... 1.000e-07
Number of eigenvalues below threshold      ... 0
Time for construction of square roots      ...    0.001 sec
Total time needed                          ...    0.004 sec

-------------------
DFT GRID GENERATION
-------------------

General Integration Accuracy     IntAcc      ... 4.388
Radial Grid Type                 RadialGrid  ... OptM3 with GC (2021)
Angular Grid (max. ang.)         AngularGrid ... 4 (Lebedev-302)
Angular grid pruning method      GridPruning ... 4 (adaptive)
Weight generation scheme         WeightScheme... mBecke (2022)
Basis function cutoff            BFCut       ... 1.0000e-11
Integration weight cutoff        WCut        ... 1.0000e-14
Partially contracted basis set               ... off
Rotationally invariant grid construction     ... off
Angular grids for H and He will be reduced by one unit

Total number of grid points                  ...   107128
Total number of batches                      ...     1685
Average number of points per batch           ...       63
Average number of grid points per atom       ...     4658
Grids setup in   0.5 sec
Initializing property integral containers    ... done (  0.0 sec)

SHARK setup successfully completed in   0.6 seconds

Maximum memory used throughout the entire STARTUP-calculation: 43.7 MB
-------------------------------------------------------------------------------
                                 ORCA GUESS
                   Start orbitals & Density for SCF / CASSCF
-------------------------------------------------------------------------------

------------
SCF SETTINGS
------------
Hamiltonian:
 Ab initio Hamiltonian  Method          .... Hartree-Fock(GTOs)


General Settings:
 Integral files         IntName         .... 2
 Hartree-Fock type      HFTyp           .... RHF
 Total Charge           Charge          ....    0
 Multiplicity           Mult            ....    1
 Number of Electrons    NEL             ....   88
 Basis Dimension        Dim             ....  223
 Nuclear Repulsion      ENuc            ....    703.1302802228 Eh

Convergence Acceleration:
 AO-DIIS                CNVDIIS         .... on
   Start iteration      DIISMaxIt       ....    12
   Startup error        DIISStart       ....  0.200000
   # of expansion vecs  DIISMaxEq       ....     5
   Bias factor          DIISBfac        ....   1.050
   Max. coefficient     DIISMaxC        ....  10.000
 MO-DIIS                CNVKDIIS        .... off
 Trust-Rad. Augm. Hess. CNVTRAH         .... auto
   Auto Start mean grad. ratio tolernc. ....  1.125000
   Auto Start start iteration           ....    50
   Auto Start num. interpolation iter.  ....    10
   Max. Number of Micro iterations      ....    24
   Max. Number of Macro iterations      .... Maxiter - #DIIS iter
   Number of Davidson start vectors     ....     2
   Converg. threshold    (grad. norm)   ....   1.000e-05
   Grad. Scal. Fac. for Micro threshold ....   0.100
   Minimum threshold for Micro iter.    ....   1.000e-02
   NR start threshold (gradient norm)   ....   1.000e-04
   Initial trust radius                 ....   0.400
   Minimum AH scaling param. (alpha)    ....   1.000
   Maximum AH scaling param. (alpha)    .... 1000.000
   Quad. conv. algorithm                .... NR
   White noise on init. David. guess    .... on
   Maximum white noise                  ....   0.010
   Pseudo random numbers                .... off
   Inactive MOs                         .... canonical
   Orbital update algorithm             .... Taylor
   Preconditioner                       .... Diag
   Full preconditioner red. dimension   ....   250
 SOSCF                 CNVSOSCF           .... on
   Start iteration     SOSCFMaxIt         ....   150
   Startup grad/error  SOSCFStart         ....  0.003300
   Hessian update      SOSCFHessUp        .... L-BFGS
   Autom. constraints  SOSCFAutoConstrain .... off
 Level Shifting         CNVShift        .... on
   Level shift para.    LevelShift      ....    0.2500
   Turn off err/grad.   ShiftErr        ....    0.0010
 Zerner damping         CNVZerner       .... off
 Static damping         CNVDamp         .... on
   Fraction old density DampFac         ....    0.7000
   Max. Damping (<1)    DampMax         ....    0.9800
   Min. Damping (>=0)   DampMin         ....    0.0000
   Turn off err/grad.   DampErr         ....    0.1000

SCF Procedure:
 Maximum # iterations   MaxIter         ....   125
 SCF integral mode      SCFMode         .... Direct
   Integral package                     .... SHARK and LIBINT hybrid scheme
 Reset frequency        DirectResetFreq ....    20
 Integral Threshold     Thresh          ....  2.500e-11 Eh
 Primitive CutOff       TCut            ....  2.500e-12 Eh

Convergence Tolerance:
 Convergence Check Mode ConvCheckMode   .... Total+1el-Energy
 Convergence forced     ConvForced      .... 1
 Energy Change          TolE            ....  1.000e-08 Eh
 1-El. energy change                    ....  1.000e-05 Eh
 Orbital Gradient       TolG            ....  1.000e-05
 Orbital Rotation angle TolX            ....  1.000e-05
 DIIS Error             TolErr          ....  5.000e-07

------------------------------
INITIAL GUESS: MODEL POTENTIAL
------------------------------
Loading Hartree-Fock densities                     ... done
Calculating cut-offs                               ... done
Initializing the effective Hamiltonian             ... done
Setting up the integral package (SHARK)            ... done
Starting the Coulomb interaction                   ... done (   0.1 sec)
Making the grid                                    ... done (   0.1 sec)
Mapping shells                                     ... done
Starting the XC term evaluation                    ... done (   0.1 sec)
Transforming the Hamiltonian                       ... done (   0.0 sec)
Diagonalizing the Hamiltonian                      ... done (   0.0 sec)
Back transforming the eigenvectors                 ... done (   0.0 sec)
Now organizing SCF variables                       ... done
                      ------------------
                      INITIAL GUESS DONE (   0.3 sec)
                      ------------------
             **** ENERGY FILE WAS UPDATED (2.en.tmp) ****
Finished Guess after   0.4 sec
Maximum memory used throughout the entire GUESS-calculation: 14.4 MB

-------------------------------------------------------------------------------------------
                                      ORCA LEAN-SCF
                              memory conserving SCF solver
-------------------------------------------------------------------------------------------

----------------------------------------D-I-I-S--------------------------------------------
Iteration    Energy (Eh)           Delta-E    RMSDP     MaxDP     DIISErr   Damp  Time(sec)
-------------------------------------------------------------------------------------------
               ***  Starting incremental Fock matrix formation  ***
    1    -550.9579278930823421     0.00e+00  2.47e-03  6.36e-02  2.56e-01  0.700   3.6
    2    -551.1247274331853987    -1.67e-01  1.89e-03  4.56e-02  1.58e-01  0.700   3.3
                               ***Turning on AO-DIIS***
    3    -551.2252827629797594    -1.01e-01  1.18e-03  2.03e-02  8.99e-02  0.700   3.3
    4    -551.2894248255101957    -6.41e-02  2.83e-03  4.82e-02  6.46e-02  0.000   3.4
    5    -551.4327277736467749    -1.43e-01  2.83e-04  7.19e-03  7.10e-03  0.000   3.5
    6    -551.4332268847658725    -4.99e-04  1.26e-04  3.39e-03  3.84e-03  0.000   3.2
                              *** Initializing SOSCF ***
---------------------------------------S-O-S-C-F--------------------------------------
Iteration    Energy (Eh)           Delta-E    RMSDP     MaxDP     MaxGrad    Time(sec)
--------------------------------------------------------------------------------------
    7    -551.4333315288852191    -1.05e-04  6.44e-05  2.42e-03  2.44e-03     3.1
               *** Restarting incremental Fock matrix formation ***
    8    -551.4333614029767432    -2.99e-05  3.19e-05  9.45e-04  6.18e-04     3.7
    9    -551.4333687835508044    -7.38e-06  3.39e-05  1.43e-03  3.74e-04     2.8
   10    -551.4333714706306182    -2.69e-06  6.44e-06  2.63e-04  1.01e-04     2.8
   11    -551.4333716820403879    -2.11e-07  2.30e-06  8.55e-05  3.84e-05     2.6
   12    -551.4333717244983291    -4.25e-08  7.56e-07  3.41e-05  1.07e-05     2.3
   13    -551.4333717290808181    -4.58e-09  3.99e-07  1.27e-05  3.43e-06     2.1
                 **** Energy Check signals convergence ****

               *****************************************************
               *                     SUCCESS                       *
               *           SCF CONVERGED AFTER  13 CYCLES          *
               *****************************************************

             **** ENERGY FILE WAS UPDATED (2.en.tmp) ****

----------------
TOTAL SCF ENERGY
----------------

Total Energy       :       -551.43337172928364 Eh          -15005.26490 eV

Components:
Nuclear Repulsion  :        703.13028022279536 Eh           19133.14764 eV
Electronic Energy  :      -1254.56365195207900 Eh          -34138.41253 eV
One Electron Energy:      -2146.97660883620301 Eh          -58422.20365 eV
Two Electron Energy:        892.41295688412401 Eh           24283.79112 eV

Virial components:
Potential Energy   :      -1102.45776863699848 Eh          -29999.40102 eV
Kinetic Energy     :        551.02439690771496 Eh           14994.13613 eV
Virial Ratio       :          2.00074220819235

---------------
SCF CONVERGENCE
---------------

  Last Energy change         ...    4.5825e-09  Tolerance :   1.0000e-08
  Last MAX-Density change    ...    1.2730e-05  Tolerance :   1.0000e-07
  Last RMS-Density change    ...    3.9859e-07  Tolerance :   5.0000e-09
  Last DIIS Error            ...    2.4435e-03  Tolerance :   5.0000e-07
  Last Orbital Gradient      ...    3.4268e-06  Tolerance :   1.0000e-05
  Last Orbital Rotation      ...    1.1666e-05  Tolerance :   1.0000e-05


----------------
ORBITAL ENERGIES
----------------

  NO   OCC          E(Eh)            E(eV) 
   0   2.0000     -20.615603      -560.9791 
   1   2.0000     -20.550456      -559.2063 
   2   2.0000     -15.546738      -423.0483 
   3   2.0000     -11.381708      -309.7120 
   4   2.0000     -11.275720      -306.8279 
   5   2.0000     -11.238030      -305.8023 
   6   2.0000     -11.235389      -305.7305 
   7   2.0000     -11.233001      -305.6655 
   8   2.0000     -11.232469      -305.6510 
   9   2.0000     -11.230154      -305.5880 
  10   2.0000     -11.229436      -305.5685 
  11   2.0000     -11.228162      -305.5338 
  12   2.0000      -1.466565       -39.9073 
  13   2.0000      -1.359796       -37.0019 
  14   2.0000      -1.202506       -32.7219 
  15   2.0000      -1.156874       -31.4801 
  16   2.0000      -1.058305       -28.7980 
  17   2.0000      -1.016279       -27.6543 
  18   2.0000      -0.984108       -26.7789 
  19   2.0000      -0.904728       -24.6189 
  20   2.0000      -0.829102       -22.5610 
  21   2.0000      -0.825203       -22.4549 
  22   2.0000      -0.783647       -21.3241 
  23   2.0000      -0.704780       -19.1780 
  24   2.0000      -0.695822       -18.9343 
  25   2.0000      -0.688986       -18.7483 
  26   2.0000      -0.682593       -18.5743 
  27   2.0000      -0.640577       -17.4310 
  28   2.0000      -0.635353       -17.2888 
  29   2.0000      -0.617308       -16.7978 
  30   2.0000      -0.588941       -16.0259 
  31   2.0000      -0.586120       -15.9491 
  32   2.0000      -0.583880       -15.8882 
  33   2.0000      -0.542768       -14.7695 
  34   2.0000      -0.535837       -14.5809 
  35   2.0000      -0.530894       -14.4464 
  36   2.0000      -0.494842       -13.4653 
  37   2.0000      -0.488039       -13.2802 
  38   2.0000      -0.484497       -13.1838 
  39   2.0000      -0.472270       -12.8511 
  40   2.0000      -0.462922       -12.5967 
  41   2.0000      -0.391059       -10.6413 
  42   2.0000      -0.336207        -9.1487 
  43   2.0000      -0.327673        -8.9164 
  44   0.0000       0.137528         3.7423 
  45   0.0000       0.140399         3.8205 
  46   0.0000       0.187405         5.0996 
  47   0.0000       0.218359         5.9419 
  48   0.0000       0.238009         6.4766 
  49   0.0000       0.256018         6.9666 
  50   0.0000       0.274506         7.4697 
  51   0.0000       0.285191         7.7604 
  52   0.0000       0.301593         8.2068 
  53   0.0000       0.320371         8.7177 
  54   0.0000       0.324142         8.8203 
*Only the first 10 virtual orbitals were printed.

                    ********************************
                    * MULLIKEN POPULATION ANALYSIS *
                    ********************************

-----------------------
MULLIKEN ATOMIC CHARGES
-----------------------
   0 C :   -0.153943
   1 C :   -0.141531
   2 C :   -0.165841
   3 H :    0.150946
   4 H :    0.173176
   5 C :   -0.167997
   6 C :   -0.233712
   7 H :    0.150972
   8 C :   -0.037710
   9 H :    0.149104
  10 C :   -0.144630
  11 H :    0.162750
  12 C :   -0.032636
  13 H :    0.152569
  14 H :    0.155127
  15 C :    0.802217
  16 H :    0.370742
  17 N :   -0.689608
  18 O :   -0.637067
  19 H :    0.275598
  20 O :   -0.593786
  21 H :    0.166572
  22 H :    0.288690
Sum of atomic charges:   -0.0000000

--------------------------------
MULLIKEN REDUCED ORBITAL CHARGES
--------------------------------
  0 C s       :     3.146091  s :     3.146091
      pz      :     0.927927  p :     2.963246
      px      :     1.010509
      py      :     1.024811
      dz2     :     0.012712  d :     0.044606
      dxz     :     0.010160
      dyz     :     0.011432
      dx2y2   :     0.003654
      dxy     :     0.006648

  1 C s       :     3.145248  s :     3.145248
      pz      :     1.049970  p :     2.951298
      px      :     0.951827
      py      :     0.949501
      dz2     :     0.012712  d :     0.044985
      dxz     :     0.007824
      dyz     :     0.009818
      dx2y2   :     0.007481
      dxy     :     0.007149

  2 C s       :     3.141734  s :     3.141734
      pz      :     1.071959  p :     2.979774
      px      :     0.955113
      py      :     0.952703
      dz2     :     0.012414  d :     0.044332
      dxz     :     0.007848
      dyz     :     0.009853
      dx2y2   :     0.007118
      dxy     :     0.007099

  3 H s       :     0.835315  s :     0.835315
      pz      :     0.005295  p :     0.013739
      px      :     0.004264
      py      :     0.004180

  4 H s       :     0.812827  s :     0.812827
      pz      :     0.009675  p :     0.013997
      px      :     0.002132
      py      :     0.002189

  5 C s       :     3.148381  s :     3.148381
      pz      :     0.977509  p :     2.975168
      px      :     0.998885
      py      :     0.998774
      dz2     :     0.011440  d :     0.044449
      dxz     :     0.009963
      dyz     :     0.011598
      dx2y2   :     0.004973
      dxy     :     0.006474

  6 C s       :     3.245346  s :     3.245346
      pz      :     1.089314  p :     2.940239
      px      :     0.890430
      py      :     0.960494
      dz2     :     0.008128  d :     0.048127
      dxz     :     0.006304
      dyz     :     0.013334
      dx2y2   :     0.008595
      dxy     :     0.011766

  7 H s       :     0.835285  s :     0.835285
      pz      :     0.009513  p :     0.013743
      px      :     0.002050
      py      :     0.002181

  8 C s       :     3.129016  s :     3.129016
      pz      :     0.940289  p :     2.857065
      px      :     0.976706
      py      :     0.940070
      dz2     :     0.013433  d :     0.051629
      dxz     :     0.011285
      dyz     :     0.013281
      dx2y2   :     0.006029
      dxy     :     0.007602

  9 H s       :     0.837120  s :     0.837120
      pz      :     0.002252  p :     0.013776
      px      :     0.005073
      py      :     0.006450

 10 C s       :     3.146744  s :     3.146744
      pz      :     0.978413  p :     2.952892
      px      :     0.990536
      py      :     0.983944
      dz2     :     0.011489  d :     0.044995
      dxz     :     0.010183
      dyz     :     0.011616
      dx2y2   :     0.005201
      dxy     :     0.006507

 11 H s       :     0.823384  s :     0.823384
      pz      :     0.005238  p :     0.013867
      px      :     0.004317
      py      :     0.004312

 12 C s       :     3.208626  s :     3.208626
      pz      :     0.810215  p :     2.753518
      px      :     0.980092
      py      :     0.963211
      dz2     :     0.014429  d :     0.070492
      dxz     :     0.012862
      dyz     :     0.022650
      dx2y2   :     0.008716
      dxy     :     0.011835

 13 H s       :     0.834803  s :     0.834803
      pz      :     0.005456  p :     0.012628
      px      :     0.001772
      py      :     0.005400

 14 H s       :     0.832250  s :     0.832250
      pz      :     0.007219  p :     0.012624
      px      :     0.002533
      py      :     0.002872

 15 C s       :     2.955617  s :     2.955617
      pz      :     0.783452  p :     2.095789
      px      :     0.620237
      py      :     0.692100
      dz2     :     0.034388  d :     0.146377
      dxz     :     0.024037
      dyz     :     0.054656
      dx2y2   :     0.016571
      dxy     :     0.016725

 16 H s       :     0.587725  s :     0.587725
      pz      :     0.016911  p :     0.041533
      px      :     0.008960
      py      :     0.015662

 17 N s       :     3.597768  s :     3.597768
      pz      :     1.359149  p :     4.057584
      px      :     1.167758
      py      :     1.530677
      dz2     :     0.009308  d :     0.034256
      dxz     :     0.006747
      dyz     :     0.003965
      dx2y2   :     0.003549
      dxy     :     0.010686

 18 O s       :     3.837334  s :     3.837334
      pz      :     1.651181  p :     4.774213
      px      :     1.836435
      py      :     1.286597
      dz2     :     0.004367  d :     0.025519
      dxz     :     0.002659
      dyz     :     0.011798
      dx2y2   :     0.003572
      dxy     :     0.003123

 19 H s       :     0.698320  s :     0.698320
      pz      :     0.004869  p :     0.026082
      px      :     0.014238
      py      :     0.006975

 20 O s       :     3.876037  s :     3.876037
      pz      :     1.383371  p :     4.685103
      px      :     1.474749
      py      :     1.826983
      dz2     :     0.011728  d :     0.032647
      dxz     :     0.012111
      dyz     :     0.007180
      dx2y2   :     0.000878
      dxy     :     0.000751

 21 H s       :     0.821240  s :     0.821240
      pz      :     0.002332  p :     0.012187
      px      :     0.003925
      py      :     0.005931

 22 H s       :     0.684933  s :     0.684933
      pz      :     0.007582  p :     0.026377
      px      :     0.007574
      py      :     0.011221



                     *******************************
                     * LOEWDIN POPULATION ANALYSIS *
                     *******************************

----------------------
LOEWDIN ATOMIC CHARGES
----------------------
   0 C :   -0.079107
   1 C :   -0.070361
   2 C :   -0.081770
   3 H :    0.076163
   4 H :    0.082137
   5 C :   -0.084109
   6 C :   -0.091301
   7 H :    0.076209
   8 C :   -0.029530
   9 H :    0.075341
  10 C :   -0.069291
  11 H :    0.078601
  12 C :   -0.020135
  13 H :    0.080739
  14 H :    0.081033
  15 C :    0.231074
  16 H :    0.199776
  17 N :   -0.280960
  18 O :   -0.208554
  19 H :    0.130041
  20 O :   -0.314699
  21 H :    0.085791
  22 H :    0.132911

-------------------------------
LOEWDIN REDUCED ORBITAL CHARGES
-------------------------------
  0 C s       :     2.886409  s :     2.886409
      pz      :     1.061488  p :     3.098870
      px      :     1.012614
      py      :     1.024767
      dz2     :     0.029428  d :     0.093828
      dxz     :     0.022044
      dyz     :     0.025009
      dx2y2   :     0.005772
      dxy     :     0.011575

  1 C s       :     2.886841  s :     2.886841
      pz      :     1.058639  p :     3.089012
      px      :     1.007111
      py      :     1.023261
      dz2     :     0.026193  d :     0.094509
      dxz     :     0.016385
      dyz     :     0.021050
      dx2y2   :     0.015123
      dxy     :     0.015758

  2 C s       :     2.886075  s :     2.886075
      pz      :     1.060925  p :     3.101895
      px      :     1.015457
      py      :     1.025513
      dz2     :     0.025772  d :     0.093800
      dxz     :     0.016511
      dyz     :     0.021155
      dx2y2   :     0.014351
      dxy     :     0.016011

  3 H s       :     0.882551  s :     0.882551
      pz      :     0.015801  p :     0.041286
      px      :     0.012822
      py      :     0.012664

  4 H s       :     0.875327  s :     0.875327
      pz      :     0.028120  p :     0.042536
      px      :     0.007083
      py      :     0.007333

  5 C s       :     2.886192  s :     2.886192
      pz      :     1.054632  p :     3.103881
      px      :     1.018221
      py      :     1.031027
      dz2     :     0.025324  d :     0.094037
      dxz     :     0.021389
      dyz     :     0.025528
      dx2y2   :     0.009162
      dxy     :     0.012634

  6 C s       :     2.884650  s :     2.884650
      pz      :     1.077703  p :     3.114479
      px      :     0.998675
      py      :     1.038100
      dz2     :     0.014692  d :     0.092173
      dxz     :     0.012179
      dyz     :     0.023566
      dx2y2   :     0.018016
      dxy     :     0.023719

  7 H s       :     0.882480  s :     0.882480
      pz      :     0.027132  p :     0.041311
      px      :     0.006884
      py      :     0.007295

  8 C s       :     2.866210  s :     2.866210
      pz      :     1.070411  p :     3.051772
      px      :     0.985658
      py      :     0.995703
      dz2     :     0.031477  d :     0.111549
      dxz     :     0.024826
      dyz     :     0.028882
      dx2y2   :     0.011492
      dxy     :     0.014872

  9 H s       :     0.883224  s :     0.883224
      pz      :     0.007636  p :     0.041435
      px      :     0.015031
      py      :     0.018768

 10 C s       :     2.886847  s :     2.886847
      pz      :     1.061047  p :     3.087923
      px      :     1.005908
      py      :     1.020968
      dz2     :     0.025503  d :     0.094521
      dxz     :     0.021439
      dyz     :     0.025388
      dx2y2   :     0.009604
      dxy     :     0.012587

 11 H s       :     0.879338  s :     0.879338
      pz      :     0.015923  p :     0.042061
      px      :     0.013001
      py      :     0.013136

 12 C s       :     2.872635  s :     2.872635
      pz      :     0.950904  p :     3.006079
      px      :     1.032785
      py      :     1.022391
      dz2     :     0.029864  d :     0.141421
      dxz     :     0.025360
      dyz     :     0.046710
      dx2y2   :     0.016932
      dxy     :     0.022554

 13 H s       :     0.878925  s :     0.878925
      pz      :     0.016828  p :     0.040336
      px      :     0.006425
      py      :     0.017083

 14 H s       :     0.878496  s :     0.878496
      pz      :     0.021611  p :     0.040471
      px      :     0.008687
      py      :     0.010173

 15 C s       :     2.852412  s :     2.852412
      pz      :     1.024746  p :     2.599333
      px      :     0.670203
      py      :     0.904384
      dz2     :     0.074916  d :     0.317181
      dxz     :     0.047412
      dyz     :     0.123543
      dx2y2   :     0.036124
      dxy     :     0.035186

 16 H s       :     0.679544  s :     0.679544
      pz      :     0.050035  p :     0.120680
      px      :     0.027844
      py      :     0.042801

 17 N s       :     3.181327  s :     3.181327
      pz      :     1.371653  p :     4.038400
      px      :     1.165915
      py      :     1.500832
      dz2     :     0.016724  d :     0.061234
      dxz     :     0.013698
      dyz     :     0.008236
      dx2y2   :     0.006911
      dxy     :     0.015665

 18 O s       :     3.459230  s :     3.459230
      pz      :     1.624561  p :     4.701053
      px      :     1.785203
      py      :     1.291289
      dz2     :     0.007198  d :     0.048272
      dxz     :     0.002465
      dyz     :     0.021769
      dx2y2   :     0.011183
      dxy     :     0.005658

 19 H s       :     0.788125  s :     0.788125
      pz      :     0.016728  p :     0.081834
      px      :     0.042117
      py      :     0.022988

 20 O s       :     3.546472  s :     3.546472
      pz      :     1.471634  p :     4.710856
      px      :     1.454803
      py      :     1.784418
      dz2     :     0.026115  d :     0.057372
      dxz     :     0.015082
      dyz     :     0.013631
      dx2y2   :     0.001293
      dxy     :     0.001250

 21 H s       :     0.874953  s :     0.874953
      pz      :     0.007510  p :     0.039256
      px      :     0.013172
      py      :     0.018574

 22 H s       :     0.783255  s :     0.783255
      pz      :     0.024174  p :     0.083834
      px      :     0.023244
      py      :     0.036415



                      *****************************
                      * MAYER POPULATION ANALYSIS *
                      *****************************

  NA   - Mulliken gross atomic population
  ZA   - Total nuclear charge
  QA   - Mulliken gross atomic charge
  VA   - Mayer's total valence
  BVA  - Mayer's bonded valence
  FA   - Mayer's free valence

  ATOM       NA         ZA         QA         VA         BVA        FA
  0 C      6.1539     6.0000    -0.1539     3.9262     3.9262    -0.0000
  1 C      6.1415     6.0000    -0.1415     3.9184     3.9184    -0.0000
  2 C      6.1658     6.0000    -0.1658     3.9169     3.9169    -0.0000
  3 H      0.8491     1.0000     0.1509     0.9532     0.9532     0.0000
  4 H      0.8268     1.0000     0.1732     0.9542     0.9542     0.0000
  5 C      6.1680     6.0000    -0.1680     3.9208     3.9208     0.0000
  6 C      6.2337     6.0000    -0.2337     3.8093     3.8093    -0.0000
  7 H      0.8490     1.0000     0.1510     0.9530     0.9530     0.0000
  8 C      6.0377     6.0000    -0.0377     3.8781     3.8781    -0.0000
  9 H      0.8509     1.0000     0.1491     0.9537     0.9537    -0.0000
 10 C      6.1446     6.0000    -0.1446     3.9229     3.9229     0.0000
 11 H      0.8373     1.0000     0.1627     0.9530     0.9530     0.0000
 12 C      6.0326     6.0000    -0.0326     3.7565     3.7565    -0.0000
 13 H      0.8474     1.0000     0.1526     0.9492     0.9492    -0.0000
 14 H      0.8449     1.0000     0.1551     0.9465     0.9465     0.0000
 15 C      5.1978     6.0000     0.8022     3.6614     3.6614     0.0000
 16 H      0.6293     1.0000     0.3707     0.8738     0.8738    -0.0000
 17 N      7.6896     7.0000    -0.6896     2.7492     2.7492    -0.0000
 18 O      8.6371     8.0000    -0.6371     1.8376     1.8376     0.0000
 19 H      0.7244     1.0000     0.2756     0.9055     0.9055     0.0000
 20 O      8.5938     8.0000    -0.5938     1.8724     1.8724     0.0000
 21 H      0.8334     1.0000     0.1666     0.9406     0.9406     0.0000
 22 H      0.7113     1.0000     0.2887     0.9063     0.9063    -0.0000

  Mayer bond orders larger than 0.100000
B(  0-C ,  1-C ) :   1.4515 B(  0-C ,  9-H ) :   0.9622 B(  0-C , 10-C ) :   1.4474 
B(  1-C ,  5-C ) :   1.4424 B(  1-C ,  7-H ) :   0.9614 B(  2-C ,  4-H ) :   0.9495 
B(  2-C ,  8-C ) :   1.4399 B(  2-C , 10-C ) :   1.4493 B(  3-H , 10-C ) :   0.9614 
B(  5-C ,  8-C ) :   1.4444 B(  5-C , 11-H ) :   0.9552 B(  6-C ,  8-C ) :   0.9718 
B(  6-C , 12-C ) :   0.9525 B(  6-C , 13-H ) :   0.9684 B(  6-C , 14-H ) :   0.9677 
B( 12-C , 15-C ) :   0.9090 B( 12-C , 17-N ) :   0.9775 B( 12-C , 21-H ) :   0.9626 
B( 15-C , 18-O ) :   0.9746 B( 15-C , 20-O ) :   1.7962 B( 16-H , 18-O ) :   0.8413 
B( 17-N , 19-H ) :   0.9098 B( 17-N , 22-H ) :   0.8870 

-------
TIMINGS
-------

Total SCF time: 0 days 0 hours 0 min 41 sec 

Total time                  ....      41.568 sec
Sum of individual times     ....      39.613 sec  ( 95.3%)

SCF preparation             ....       0.019 sec  (  0.0%)
Fock matrix formation       ....      39.509 sec  ( 95.0%)
  Startup                   ....       0.001 sec  (  0.0% of F)
  Coulomb+Exchange Fock     ....      41.445 sec  (104.9% of F)
Diagonalization             ....       0.000 sec  (  0.0%)
Density matrix formation    ....       0.006 sec  (  0.0%)
Total Energy calculation    ....       0.001 sec  (  0.0%)
Population analysis         ....       0.003 sec  (  0.0%)
Orbital Transformation      ....       0.009 sec  (  0.0%)
Orbital Orthonormalization  ....       0.000 sec  (  0.0%)
DIIS solution               ....       0.044 sec  (  0.1%)
SOSCF solution              ....       0.021 sec  (  0.1%)
Finished LeanSCF after  41.6 sec

Maximum memory used throughout the entire LEANSCF-calculation: 18.1 MB

------------------------------------------------------------------------------
                                ORCA  MP2 
------------------------------------------------------------------------------

Freezing NCore=24 chemical core electrons
MP2 will be done in the AO integral direct mode
The Q1-step will be done using symmetric double matrices
Dimension of the basis                    ...  223
Memory devoted for MP2                    ... 4096 MB   
Memory needed for all in one shot         ... 1361 MB
Number of MOs that can be treated together...   95      
MP2 density construction                  ... relaxed
The MP2 gradient is requested => amplitudes will be stored on disk
Total number of MOs              ...   32
Number of MOs treated per batch  ...   32 
Number of batches necessary      ...    1 
OPERATORS   0/  0 PASS   0
-----------------------------------------------
 MP2 CORRELATION ENERGY   :     -1.710126358 Eh
-----------------------------------------------


---------------------
MP2 DENSITY FORMATION
---------------------

Completing the external part of the density      ... done
Storing the unrelaxed density                    ... done

Calculating G(D)                                 ... done
Completing the Lagrangian                        ... done
Solving the Z-vector equations                   ... 
-------------------
SHARK CP-SCF DRIVER
-------------------

Dimension of the orbital basis          ...    223
Dimension of the CPSCF-problem          ...   7876
Number of operators                     ...      1
Max. number of iterations               ...    128
Convergence Tolerance                   ... 1.0e-04
Number of perturbations                 ...      1
Perturbation type                       ... REAL

----------------------------
POPLE LINEAR EQUATION SOLVER
----------------------------

  ITERATION   0:   ||err||_max =   1.4463e-01 (   4.4 sec)
  ITERATION   1:   ||err||_max =   4.0144e-02 (   4.5 sec)
  ITERATION   2:   ||err||_max =   1.5974e-02 (   4.6 sec)
  ITERATION   3:   ||err||_max =   4.7568e-03 (   4.5 sec)
  ITERATION   4:   ||err||_max =   1.8298e-03 (   4.6 sec)
  ITERATION   5:   ||err||_max =   7.0576e-04 (   4.6 sec)
  ITERATION   6:   ||err||_max =   3.0226e-04 (   4.6 sec)
  ITERATION   7:   ||err||_max =   1.3433e-04 (   4.6 sec)
  ITERATION   8:   ||err||_max =   4.7673e-05 (   4.6 sec)
                                                 ... done
Finalizing the relaxed density                   ... done
Transforming P to the AO basis                   ... done
Storing the relaxed density                      ... done

------------------------------------
ENERGY WEIGHTED DENSITY FINALIZATION
------------------------------------

Gathering the parts of the W-matrix              ...                                                      done
Forming the Z-density                            ... done
Transforming Z to the AO basis                   ... done
Calculating G(Z)                                 ... done
Finalizing the W-matrix                          ...                                                      done
Transforming W to the AO basis and storing       ... done

                *********************************************
                * UNRELAXED MP2 DENSITY POPULATION ANALYSIS *
                *********************************************

------------------------------------------------------------------------------
                           ORCA POPULATION ANALYSIS
------------------------------------------------------------------------------
Input electron density              ... 2.pmp2ur
BaseName (.gbw .S,...)              ... 2

                    ********************************
                    * MULLIKEN POPULATION ANALYSIS *
                    ********************************

-----------------------
MULLIKEN ATOMIC CHARGES
-----------------------
   0 C :   -0.154474
   1 C :   -0.143127
   2 C :   -0.166312
   3 H :    0.152213
   4 H :    0.174127
   5 C :   -0.168447
   6 C :   -0.234723
   7 H :    0.152238
   8 C :   -0.039650
   9 H :    0.150402
  10 C :   -0.146146
  11 H :    0.163910
  12 C :   -0.038241
  13 H :    0.153300
  14 H :    0.155798
  15 C :    0.768272
  16 H :    0.367486
  17 N :   -0.681460
  18 O :   -0.622882
  19 H :    0.274338
  20 O :   -0.570634
  21 H :    0.167215
  22 H :    0.286798
Sum of atomic charges:   -0.0000000

--------------------------------
MULLIKEN REDUCED ORBITAL CHARGES
--------------------------------
  0 C s       :     3.145199  s :     3.145199
      pz      :     0.923166  p :     2.947847
      px      :     1.005298
      py      :     1.019383
      dz2     :     0.016044  d :     0.061428
      dxz     :     0.013808
      dyz     :     0.015001
      dx2y2   :     0.006927
      dxy     :     0.009649
  1 C s       :     3.144259  s :     3.144259
      pz      :     1.044372  p :     2.937135
      px      :     0.947673
      py      :     0.945090
      dz2     :     0.016149  d :     0.061734
      dxz     :     0.011048
      dyz     :     0.013097
      dx2y2   :     0.011319
      dxy     :     0.010120
  2 C s       :     3.141216  s :     3.141216
      pz      :     1.065427  p :     2.963670
      px      :     0.950492
      py      :     0.947751
      dz2     :     0.015874  d :     0.061425
      dxz     :     0.011130
      dyz     :     0.013164
      dx2y2   :     0.011093
      dxy     :     0.010165
  3 H s       :     0.831460  s :     0.831460
      pz      :     0.006094  p :     0.016327
      px      :     0.005164
      py      :     0.005069
  4 H s       :     0.809288  s :     0.809288
      pz      :     0.010252  p :     0.016584
      px      :     0.003155
      py      :     0.003177
  5 C s       :     3.147761  s :     3.147761
      pz      :     0.972255  p :     2.959170
      px      :     0.993652
      py      :     0.993262
      dz2     :     0.014561  d :     0.061516
      dxz     :     0.013648
      dyz     :     0.015248
      dx2y2   :     0.008585
      dxy     :     0.009474
  6 C s       :     3.242000  s :     3.242000
      pz      :     1.083763  p :     2.928172
      px      :     0.887301
      py      :     0.957109
      dz2     :     0.011350  d :     0.064552
      dxz     :     0.009770
      dyz     :     0.016463
      dx2y2   :     0.012159
      dxy     :     0.014808
  7 H s       :     0.831432  s :     0.831432
      pz      :     0.010110  p :     0.016330
      px      :     0.003054
      py      :     0.003165
  8 C s       :     3.128233  s :     3.128233
      pz      :     0.935499  p :     2.842074
      px      :     0.971144
      py      :     0.935430
      dz2     :     0.016904  d :     0.069343
      dxz     :     0.015142
      dyz     :     0.016963
      dx2y2   :     0.009630
      dxy     :     0.010704
  9 H s       :     0.833235  s :     0.833235
      pz      :     0.003196  p :     0.016363
      px      :     0.005936
      py      :     0.007232
 10 C s       :     3.145728  s :     3.145728
      pz      :     0.973216  p :     2.938678
      px      :     0.986146
      py      :     0.979316
      dz2     :     0.014588  d :     0.061740
      dxz     :     0.013835
      dyz     :     0.015231
      dx2y2   :     0.008677
      dxy     :     0.009408
 11 H s       :     0.819621  s :     0.819621
      pz      :     0.006043  p :     0.016470
      px      :     0.005226
      py      :     0.005200
 12 C s       :     3.205732  s :     3.205732
      pz      :     0.810411  p :     2.746466
      px      :     0.975300
      py      :     0.960755
      dz2     :     0.017518  d :     0.086043
      dxz     :     0.016160
      dyz     :     0.025158
      dx2y2   :     0.012032
      dxy     :     0.015176
 13 H s       :     0.831345  s :     0.831345
      pz      :     0.006278  p :     0.015355
      px      :     0.002823
      py      :     0.006254
 14 H s       :     0.828845  s :     0.828845
      pz      :     0.007957  p :     0.015357
      px      :     0.003541
      py      :     0.003860
 15 C s       :     2.957546  s :     2.957546
      pz      :     0.783717  p :     2.117239
      px      :     0.636873
      py      :     0.696649
      dz2     :     0.036610  d :     0.156944
      dxz     :     0.026028
      dyz     :     0.056791
      dx2y2   :     0.018434
      dxy     :     0.019082
 16 H s       :     0.589823  s :     0.589823
      pz      :     0.017228  p :     0.042691
      px      :     0.009593
      py      :     0.015870
 17 N s       :     3.593060  s :     3.593060
      pz      :     1.349906  p :     4.031982
      px      :     1.162141
      py      :     1.519935
      dz2     :     0.013692  d :     0.056418
      dxz     :     0.010987
      dyz     :     0.008642
      dx2y2   :     0.008067
      dxy     :     0.015030
 18 O s       :     3.833004  s :     3.833004
      pz      :     1.640346  p :     4.741232
      px      :     1.822397
      py      :     1.278488
      dz2     :     0.008878  d :     0.048647
      dxz     :     0.007214
      dyz     :     0.016319
      dx2y2   :     0.008219
      dxy     :     0.008017
 19 H s       :     0.697550  s :     0.697550
      pz      :     0.005741  p :     0.028112
      px      :     0.014566
      py      :     0.007805
 20 O s       :     3.871434  s :     3.871434
      pz      :     1.374180  p :     4.644865
      px      :     1.458521
      py      :     1.812164
      dz2     :     0.015722  d :     0.054334
      dxz     :     0.016257
      dyz     :     0.011888
      dx2y2   :     0.005264
      dxy     :     0.005204
 21 H s       :     0.817924  s :     0.817924
      pz      :     0.003312  p :     0.014862
      px      :     0.004825
      py      :     0.006725
 22 H s       :     0.684783  s :     0.684783
      pz      :     0.008350  p :     0.028419
      px      :     0.008252
      py      :     0.011816


                     *******************************
                     * LOEWDIN POPULATION ANALYSIS *
                     *******************************

----------------------
LOEWDIN ATOMIC CHARGES
----------------------
   0 C :   -0.079026
   1 C :   -0.071184
   2 C :   -0.081329
   3 H :    0.076612
   4 H :    0.082482
   5 C :   -0.083629
   6 C :   -0.091351
   7 H :    0.076657
   8 C :   -0.031206
   9 H :    0.075814
  10 C :   -0.070139
  11 H :    0.079009
  12 C :   -0.023624
  13 H :    0.080937
  14 H :    0.081196
  15 C :    0.206371
  16 H :    0.197385
  17 N :   -0.276365
  18 O :   -0.199592
  19 H :    0.129327
  20 O :   -0.296113
  21 H :    0.085944
  22 H :    0.131822

-------------------------------
LOEWDIN REDUCED ORBITAL CHARGES
-------------------------------
  0 C s       :     2.886268  s :     2.886268
      pz      :     1.053800  p :     3.078975
      px      :     1.006638
      py      :     1.018537
      dz2     :     0.033876  d :     0.113784
      dxz     :     0.026204
      dyz     :     0.029196
      dx2y2   :     0.009121
      dxy     :     0.015387
  1 C s       :     2.886673  s :     2.886673
      pz      :     1.051699  p :     3.070116
      px      :     1.001421
      py      :     1.016996
      dz2     :     0.030108  d :     0.114396
      dxz     :     0.020109
      dyz     :     0.024918
      dx2y2   :     0.019173
      dxy     :     0.020087
  2 C s       :     2.885924  s :     2.885924
      pz      :     1.053632  p :     3.081091
      px      :     1.008840
      py      :     1.018618
      dz2     :     0.029817  d :     0.114315
      dxz     :     0.020329
      dyz     :     0.025088
      dx2y2   :     0.018584
      dxy     :     0.020497
  3 H s       :     0.877452  s :     0.877452
      pz      :     0.017488  p :     0.045936
      px      :     0.014284
      py      :     0.014164
  4 H s       :     0.870273  s :     0.870273
      pz      :     0.030106  p :     0.047244
      px      :     0.008423
      py      :     0.008715
  5 C s       :     2.886026  s :     2.886026
      pz      :     1.047029  p :     3.083111
      px      :     1.011808
      py      :     1.024274
      dz2     :     0.029649  d :     0.114493
      dxz     :     0.025440
      dyz     :     0.029690
      dx2y2   :     0.012926
      dxy     :     0.016788
  6 C s       :     2.884431  s :     2.884431
      pz      :     1.071093  p :     3.095487
      px      :     0.992525
      py      :     1.031869
      dz2     :     0.018474  d :     0.111432
      dxz     :     0.016110
      dyz     :     0.027469
      dx2y2   :     0.021939
      dxy     :     0.027440
  7 H s       :     0.877384  s :     0.877384
      pz      :     0.029144  p :     0.045959
      px      :     0.008176
      py      :     0.008639
  8 C s       :     2.866518  s :     2.866518
      pz      :     1.062452  p :     3.031736
      px      :     0.979620
      py      :     0.989665
      dz2     :     0.036115  d :     0.132952
      dxz     :     0.029252
      dyz     :     0.033272
      dx2y2   :     0.015245
      dxy     :     0.019068
  9 H s       :     0.878120  s :     0.878120
      pz      :     0.009093  p :     0.046066
      px      :     0.016541
      py      :     0.020431
 10 C s       :     2.886676  s :     2.886676
      pz      :     1.053661  p :     3.069054
      px      :     1.000454
      py      :     1.014940
      dz2     :     0.029749  d :     0.114408
      dxz     :     0.025375
      dyz     :     0.029433
      dx2y2   :     0.013236
      dxy     :     0.016616
 11 H s       :     0.874205  s :     0.874205
      pz      :     0.017638  p :     0.046786
      px      :     0.014485
      py      :     0.014663
 12 C s       :     2.872974  s :     2.872974
      pz      :     0.947492  p :     2.991237
      px      :     1.026254
      py      :     1.017491
      dz2     :     0.033447  d :     0.159414
      dxz     :     0.029157
      dyz     :     0.049654
      dx2y2   :     0.020668
      dxy     :     0.026488
 13 H s       :     0.873966  s :     0.873966
      pz      :     0.018497  p :     0.045097
      px      :     0.007779
      py      :     0.018821
 14 H s       :     0.873558  s :     0.873558
      pz      :     0.023478  p :     0.045245
      px      :     0.010117
      py      :     0.011651
 15 C s       :     2.853172  s :     2.853172
      pz      :     1.022094  p :     2.611762
      px      :     0.684809
      py      :     0.904859
      dz2     :     0.078130  d :     0.328695
      dxz     :     0.049401
      dyz     :     0.125022
      dx2y2   :     0.038672
      dxy     :     0.037470
 16 H s       :     0.679453  s :     0.679453
      pz      :     0.051100  p :     0.123162
      px      :     0.028482
      py      :     0.043580
 17 N s       :     3.179559  s :     3.179559
      pz      :     1.361924  p :     4.011386
      px      :     1.159444
      py      :     1.490018
      dz2     :     0.021609  d :     0.085420
      dxz     :     0.018330
      dyz     :     0.013335
      dx2y2   :     0.011606
      dxy     :     0.020540
 18 O s       :     3.457285  s :     3.457285
      pz      :     1.614160  p :     4.669385
      px      :     1.771727
      py      :     1.283498
[...]
      pz      :     1.049180  p :     3.071098
      px      :     1.005762
      py      :     1.016156
      dz2     :     0.028441  d :     0.106521
      dxz     :     0.019081
      dyz     :     0.022330
      dx2y2   :     0.017845
      dxy     :     0.018824
  2 C s       :     2.897696  s :     2.897696
      pz      :     1.051852  p :     3.073846
      px      :     1.007762
      py      :     1.014233
      dz2     :     0.028104  d :     0.106357
      dxz     :     0.019078
      dyz     :     0.022456
      dx2y2   :     0.017551
      dxy     :     0.019168
  3 H s       :     0.880154  s :     0.880154
      pz      :     0.016690  p :     0.045076
      px      :     0.014274
      py      :     0.014111
  4 H s       :     0.873879  s :     0.873879
      pz      :     0.029042  p :     0.046182
      px      :     0.008501
      py      :     0.008639
  5 C s       :     2.898038  s :     2.898038
      pz      :     1.045398  p :     3.073844
      px      :     1.008715
      py      :     1.019731
      dz2     :     0.027432  d :     0.106491
      dxz     :     0.024287
      dyz     :     0.027433
      dx2y2   :     0.011916
      dxy     :     0.015423
  6 C s       :     2.887682  s :     2.887682
      pz      :     1.076659  p :     3.115991
      px      :     1.000023
      py      :     1.039309
      dz2     :     0.017692  d :     0.104933
      dxz     :     0.015159
      dyz     :     0.025292
      dx2y2   :     0.021991
      dxy     :     0.024798
  7 H s       :     0.879971  s :     0.879971
      pz      :     0.028197  p :     0.045108
      px      :     0.008324
      py      :     0.008587
  8 C s       :     2.876388  s :     2.876388
      pz      :     1.054955  p :     3.027357
      px      :     0.981252
      py      :     0.991151
      dz2     :     0.033875  d :     0.124272
      dxz     :     0.027669
      dyz     :     0.030733
      dx2y2   :     0.014381
      dxy     :     0.017614
  9 H s       :     0.880429  s :     0.880429
      pz      :     0.009549  p :     0.045151
      px      :     0.016547
      py      :     0.019055
 10 C s       :     2.896600  s :     2.896600
      pz      :     1.050427  p :     3.069942
      px      :     1.005333
      py      :     1.014182
      dz2     :     0.027615  d :     0.106529
      dxz     :     0.024490
      dyz     :     0.027201
      dx2y2   :     0.011958
      dxy     :     0.015265
 11 H s       :     0.875372  s :     0.875372
      pz      :     0.016792  p :     0.045918
      px      :     0.014477
      py      :     0.014649
 12 C s       :     2.876219  s :     2.876219
      pz      :     0.953142  p :     3.014482
      px      :     1.028838
      py      :     1.032502
      dz2     :     0.036335  d :     0.152260
      dxz     :     0.026237
      dyz     :     0.044878
      dx2y2   :     0.018912
      dxy     :     0.025897
 13 H s       :     0.873001  s :     0.873001
      pz      :     0.017309  p :     0.044837
      px      :     0.008103
      py      :     0.019424
 14 H s       :     0.870804  s :     0.870804
      pz      :     0.023912  p :     0.045300
      px      :     0.010189
      py      :     0.011199
 15 C s       :     2.865878  s :     2.865878
      pz      :     1.003721  p :     2.684968
      px      :     0.785169
      py      :     0.896078
      dz2     :     0.075942  d :     0.305389
      dxz     :     0.042953
      dyz     :     0.101536
      dx2y2   :     0.039930
      dxy     :     0.045027
 16 H s       :     0.690847  s :     0.690847
      pz      :     0.057133  p :     0.120250
      px      :     0.027390
      py      :     0.035727
 17 N s       :     3.193103  s :     3.193103
      pz      :     1.383436  p :     3.986883
      px      :     1.161547
      py      :     1.441899
      dz2     :     0.022275  d :     0.083222
      dxz     :     0.015791
      dyz     :     0.012485
      dx2y2   :     0.012685
      dxy     :     0.019987
 18 O s       :     3.482891  s :     3.482891
      pz      :     1.564705  p :     4.619220
      px      :     1.722311
      py      :     1.332203
      dz2     :     0.014034  d :     0.072604
      dxz     :     0.007286
      dyz     :     0.022656
      dx2y2   :     0.014997
      dxy     :     0.013630
 19 H s       :     0.786432  s :     0.786432
      pz      :     0.018647  p :     0.084108
      px      :     0.042703
      py      :     0.022757
 20 O s       :     3.561029  s :     3.561029
      pz      :     1.468368  p :     4.593286
      px      :     1.407760
      py      :     1.717157
      dz2     :     0.026826  d :     0.078986
      dxz     :     0.020536
      dyz     :     0.017762
      dx2y2   :     0.006966
      dxy     :     0.006896
 21 H s       :     0.867275  s :     0.867275
      pz      :     0.008805  p :     0.044218
      px      :     0.015138
      py      :     0.020275
 22 H s       :     0.785061  s :     0.785061
      pz      :     0.023005  p :     0.085757
      px      :     0.023624
      py      :     0.039128


                      *****************************
                      * MAYER POPULATION ANALYSIS *
                      *****************************

  NA   - Mulliken gross atomic population
  ZA   - Total nuclear charge
  QA   - Mulliken gross atomic charge
  VA   - Mayer's total valence
  BVA  - Mayer's bonded valence
  FA   - Mayer's free valence

  ATOM       NA         ZA         QA         VA         BVA        FA
  0 C      6.1201     6.0000    -0.1201     4.0218     3.6966     0.3252
  1 C      6.1208     6.0000    -0.1208     4.0156     3.6905     0.3251
  2 C      6.1396     6.0000    -0.1396     4.0150     3.6825     0.3325
  3 H      0.8780     1.0000     0.1220     0.9652     0.9187     0.0465
  4 H      0.8613     1.0000     0.1387     0.9695     0.9228     0.0468
  5 C      6.1390     6.0000    -0.1390     4.0117     3.6797     0.3319
  6 C      6.2469     6.0000    -0.2469     3.9362     3.6648     0.2714
  7 H      0.8777     1.0000     0.1223     0.9650     0.9185     0.0465
  8 C      5.9905     6.0000     0.0095     4.0200     3.6767     0.3432
  9 H      0.8788     1.0000     0.1212     0.9654     0.9189     0.0465
 10 C      6.1225     6.0000    -0.1225     4.0187     3.6938     0.3249
 11 H      0.8652     1.0000     0.1348     0.9669     0.9202     0.0467
 12 C      6.0593     6.0000    -0.0593     3.9106     3.6322     0.2784
 13 H      0.8613     1.0000     0.1387     0.9601     0.9114     0.0487
 14 H      0.8562     1.0000     0.1438     0.9606     0.9120     0.0486
 15 C      5.4200     6.0000     0.5800     3.9286     3.6497     0.2789
 16 H      0.6575     1.0000     0.3425     0.9032     0.8590     0.0442
 17 N      7.6133     7.0000    -0.6133     3.0193     2.6956     0.3237
 18 O      8.5255     8.0000    -0.5255     2.2257     1.8717     0.3540
 19 H      0.7388     1.0000     0.2612     0.9194     0.8732     0.0462
 20 O      8.4451     8.0000    -0.4451     2.2923     1.9024     0.3900
 21 H      0.8468     1.0000     0.1532     0.9507     0.9021     0.0486
 22 H      0.7357     1.0000     0.2643     0.9272     0.8803     0.0470

  Mayer bond orders larger than 0.100000
B(  0-C ,  1-C ) :   1.3542 B(  0-C ,  9-H ) :   0.9177 B(  0-C , 10-C ) :   1.3521 
B(  1-C ,  5-C ) :   1.3449 B(  1-C ,  7-H ) :   0.9165 B(  2-C ,  4-H ) :   0.9054 
B(  2-C ,  8-C ) :   1.3374 B(  2-C , 10-C ) :   1.3494 B(  3-H , 10-C ) :   0.9166 
B(  5-C ,  8-C ) :   1.3356 B(  5-C , 11-H ) :   0.9083 B(  6-C ,  8-C ) :   0.9378 
B(  6-C , 12-C ) :   0.9027 B(  6-C , 13-H ) :   0.9173 B(  6-C , 14-H ) :   0.9145 
B( 12-C , 15-C ) :   0.8649 B( 12-C , 17-N ) :   0.9603 B( 12-C , 21-H ) :   0.9107 
B( 15-C , 18-O ) :   1.0024 B( 15-C , 20-O ) :   1.7688 B( 16-H , 18-O ) :   0.8118 
B( 17-N , 19-H ) :   0.8714 B( 17-N , 22-H ) :   0.8552 


----------------------------------
MP2 DERIVATIVE INTEGRAL GENERATION
----------------------------------

Input SCF Electron Density              ... 2.scfp
Input Correlated Electron Density       ... 2.pmp2re
Input Energy Weighted Density           ... 2.wmp2.tmp
Input Wavefunction Amplitudes           ... 2.mp2tsaa.tmp

Nuclear repulsion gradient              ... done (  0.0 sec)
HCore & Overlap gradient  (SHARK)       ... done (  0.2 sec)
Analytic two-electron gradient terms    ... 
  Batch handling in the gradient evaluation:
  General contraction                   ... not used
  Memory available                      ... 4077.6 MB
  Memory per occupied orbital in Q2     ...   12.1 MB
  Memory per occupied orbital in Q3     ...    0.0 MB
  Total memory requirement per |i>      ...   12.2 MB
  Number of orbitals treated per batch  ...     32
  Number of batches to be done          ...      1
done ( 41.1 sec)

---------------------------------------
MP2 TOTAL ENERGY:     -553.146941272 Eh
---------------------------------------

The final MP2 gradient
  0:  -0.00000985  -0.00001297  -0.00000186
  1:  -0.00000033  -0.00000065  -0.00000438
  2:  -0.00000373   0.00001040   0.00001626
  3:  -0.00000128  -0.00000099  -0.00000026
  4:   0.00000534   0.00000331   0.00000155
  5:   0.00001253   0.00000574  -0.00002977
  6:   0.00000897   0.00001581  -0.00000843
  7:  -0.00000023  -0.00000184  -0.00000134
  8:   0.00000007  -0.00000854   0.00001101
  9:  -0.00000013  -0.00000008  -0.00000206
 10:  -0.00000757  -0.00000712   0.00000632
 11:   0.00000235   0.00000506   0.00000623
 12:  -0.00001848   0.00000122   0.00003903
 13:  -0.00000284  -0.00000159   0.00000012
 14:   0.00000509  -0.00001060   0.00000835
 15:  -0.00002112   0.00005285  -0.00003836
 16:  -0.00000160  -0.00000142  -0.00000315
 17:   0.00000044  -0.00004460  -0.00000650
 18:   0.00000993  -0.00002480  -0.00000778
 19:   0.00000581   0.00003146   0.00000399
 20:  -0.00000955  -0.00001227   0.00004757
 21:   0.00002100  -0.00000724  -0.00002968
 22:   0.00000518   0.00000887  -0.00000684

-----------------------------------
NORM OF THE MP2 GRADIENT:  0.000132
-----------------------------------

Maximum memory used throughout the entire MP2-calculation: 1448.8 MB

-------------------------   --------------------
FINAL SINGLE POINT ENERGY      -553.146941271982
-------------------------   --------------------

                                *** OPTIMIZATION RUN DONE ***


------------------------------------------------------------------------------
                              ORCA PROPERTY CALCULATIONS
------------------------------------------------------------------------------

GBWName                                 ... 2.gbw
Number of atoms                         ...     23
Number of basis functions               ...    223
Max core memory                         ...   4096 MB

Electric properties:
Dipole moment                           ... YES
Quadrupole moment                       ...  NO
Static polarizability (Dipole/Dipole)   ...  NO
Static polarizability (Dipole/Quad.)    ...  NO
Static polarizability (Quad./Quad.)     ...  NO
Static polarizability (Velocity)        ...  NO
Static hyperpolarizability              ...  NO

Atomic electric properties:
Dipole moment                           ...  NO
Quadrupole moment                       ...  NO
Static polarizability                   ...  NO

Choice of electric origin               ... Center of mass
Position of electric origin             ...    -6.527299     2.840948     0.739859

General magnetic properties:
Magnetizability                         ...  NO

EPR properties:
g-Tensor (aka g-matrix)                 ...  NO
Zero-Field splitting spin-orbit         ...  NO
Zero-field splitting spin-spin          ...  NO
Hyperfine couplings                     ...  NO (   0 nuclei)
Quadrupole couplings                    ...  NO (   0 nuclei)
Contact density                         ...  NO (   0 nuclei)

NMR properties:
Chemical shifts                         ...  NO (   0 nuclei)
Spin-rotation constants                 ...  NO (   0 nuclei)
Spin-spin couplings                     ...  NO (   0 nuclei,    0 pairs)

Choice of magnetic origin               ... GIAO
Position of magnetic origin             ...     0.000000     0.000000     0.000000

Properties with geometric perturbations:
SCF Hessian                             ...  NO
IR spectrum                             ...  NO
VCD spectrum                            ...  NO
X-ray spectroscopy properties:
SCF XES/XAS/RIXS spectra                ...  NO

SCF SOC stabilization energy            ...  NO
Diagonal Born-Oppenheimer correction    ...  NO

-------------
DIPOLE MOMENT
-------------

Method             : SCF
Type of density    : Electron Density
Multiplicity       :   1
Irrep              :   0
Energy             :  -551.4314691812242017 Eh
Basis              : AO
                                X                 Y                 Z
Electronic contribution:      0.954278054      -1.490156245       3.672945751
Nuclear contribution   :     -0.766952657       0.901452281      -3.976899786
                        -----------------------------------------
Total Dipole Moment    :      0.187325397      -0.588703963      -0.303954035
                        -----------------------------------------
Magnitude (a.u.)       :      0.688513773
Magnitude (Debye)      :      1.750062932



--------------------
Rotational spectrum 
--------------------
 
Rotational constants in cm-1:             0.052588             0.022894             0.020034 
Rotational constants in MHz :          1576.556379           686.337464           600.603322 

Dipole components along the rotational axes: 
x,y,z [a.u.] :     0.132195    -0.051148     0.673765 
x,y,z [Debye]:     0.336012    -0.130007     1.712575 

 

-------------
DIPOLE MOMENT
-------------

Method             : MP2
Type of density    : Electron Density
Multiplicity       :   1
Level              : Unrelaxed density
Irrep              :   0
Energy             :     0.0000000000000000 Eh
Basis              : AO
                                X                 Y                 Z
Electronic contribution:      0.945629374      -1.492882199       3.699594303
Nuclear contribution   :     -0.766952657       0.901452281      -3.976899786
                        -----------------------------------------
Total Dipole Moment    :      0.178676717      -0.591429918      -0.277305483
                        -----------------------------------------
Magnitude (a.u.)       :      0.677209752
Magnitude (Debye)      :      1.721330393



--------------------
Rotational spectrum 
--------------------
 
Rotational constants in cm-1:             0.052588             0.022894             0.020034 
Rotational constants in MHz :          1576.556379           686.337464           600.603322 

Dipole components along the rotational axes: 
x,y,z [a.u.] :     0.126029    -0.025151     0.664904 
x,y,z [Debye]:     0.320341    -0.063928     1.690051 

 

-------------
DIPOLE MOMENT
-------------

Method             : MP2
Type of density    : Electron Density
Multiplicity       :   1
Level              : Relaxed density
Irrep              :   0
Energy             :     0.0000000000000000 Eh
Basis              : AO
                                X                 Y                 Z
Electronic contribution:      0.940102724      -1.515587245       3.819158056
Nuclear contribution   :     -0.766952657       0.901452281      -3.976899786
                        -----------------------------------------
Total Dipole Moment    :      0.173150068      -0.614134963      -0.157741731
                        -----------------------------------------
Magnitude (a.u.)       :      0.657286203
Magnitude (Debye)      :      1.670688756



--------------------
Rotational spectrum 
--------------------
 
Rotational constants in cm-1:             0.052588             0.022894             0.020034 
Rotational constants in MHz :          1576.556379           686.337464           600.603322 

Dipole components along the rotational axes: 
x,y,z [a.u.] :     0.073194     0.083291     0.647866 
x,y,z [Debye]:     0.186043     0.211709     1.646745 

 

Dipole moment calculation done in   0.0 sec 

Maximum memory used throughout the entire PROP-calculation: 13.2 MB

--------------------------------
SUGGESTED CITATIONS FOR THIS RUN
--------------------------------

Below you find a list of papers that are relevant to this ORCA run
We neither can nor want to force you to cite these papers, but we appreciate if you do
You receive ORCA, which is the product of decades of hard work by many enthusiastic individuals, for free
The only thing we kindly ask in return is that you cite our papers,
We deeply appreciate it, if you show your appreciation for ORCA by not just citing the generic ORCA reference.

Please note that relegating all ORCA citations to the supporting information does *not* help us.
SI sections are not indexed - citations you put there will not count into any citation statistics
But we need these citations in order to attract the funding resources that allow us to do what we are doing

Therefore, if you are a happy ORCA user, please consider citing a few of the papers listed below in the main body of your paper

In addition to the list printed below, the program has created the file 2.bibtex that contains the list in bibtex format
You can import this file easily into all common literature databanks and citation aid programs


List of essential papers. We consider these as the minimum necessary citations

  1. Neese, F.
     Software update: the ORCA program system, version 6.0
     WIRES Comput. Molec. Sci. 2025 15(1), e70019
     doi.org/10.1002/wcms.7019

List of papers to cite with high priority. The work reported in these papers was absolutely
necessary for this run to complete.
Our perspective: the developers of density functionals and basis sets usually get cited in chemistry papers
Good! But without the algorithms to do something with them, the functionals or basis sets would not do anything.
Hence, in our opinion, the algorithm design and method developments papers are equally worthy of getting cited

  1. Neese, F.
     The SHARK Integral Generation and Digestion System
     J. Comp. Chem. 2022 44(3), 381
     doi.org/10.1002/jcc.26942

List of suggested additional citations. These are papers that are important in the 'surrounding' of 
of this run, or papers that preceded the highly important papers. If you like your results we are grateful for a citation.

  1. Neese, F.
     The ORCA program system
     WIRES Comput. Molec. Sci. 2012 2(1), 73-78
     doi.org/10.1002/wcms.81
  2. Neese, F.
     Software update: the ORCA program system, version 4.0
     WIRES Comput. Molec. Sci. 2018 8(1), 1-6
     doi.org/10.1002/wcms.1327
  3. Neese, F.; Wennmohs, F.; Becker, U.; Riplinger, C.
     The ORCA quantum chemistry program package
     J. Chem. Phys. 2020 152(22), 224108
     doi.org/10.1063/5.0004608
  4. Neese, F.
     Software update: The ORCA program system—Version 5.0
     WIRES Comput. Molec. Sci. 2022 12(1), e1606
     doi.org/10.1002/wcms.1606

List of optional additional citations

  1. Neese, F.
     Approximate second-order SCF convergence for spin unrestricted wavefunctions
     Chem. Phys. Lett. 2000 325(1-3), 93-98
     doi.org/10.1016/s0009-2614(00)00662-x

Timings for individual modules:

Sum of individual times          ...     1534.738 sec (=  25.579 min)
Startup calculation              ...        5.878 sec (=   0.098 min)   0.4 %
SCF iterations                   ...      275.226 sec (=   4.587 min)  17.9 %
Property calculations            ...        0.041 sec (=   0.001 min)   0.0 %
MP2 module                       ...     1253.575 sec (=  20.893 min)  81.7 %
Geometry relaxation              ...        0.019 sec (=   0.000 min)   0.0 %
                             ****ORCA TERMINATED NORMALLY****
TOTAL RUN TIME: 0 days 0 hours 25 minutes 34 seconds 965 msec
