
                                 *****************
                                 * O   R   C   A *
                                 *****************

                                            #,                                       
                                            ###                                      
                                            ####                                     
                                            #####                                    
                                            ######                                   
                                           ########,                                 
                                     ,,################,,,,,                         
                               ,,#################################,,                 
                          ,,##########################################,,             
                       ,#########################################, ''#####,          
                    ,#############################################,,   '####,        
                  ,##################################################,,,,####,       
                ,###########''''           ''''###############################       
              ,#####''   ,,,,##########,,,,          '''####'''          '####       
            ,##' ,,,,###########################,,,                        '##       
           ' ,,###''''                  '''############,,,                           
         ,,##''                                '''############,,,,        ,,,,,,###''
      ,#''                                            '''#######################'''  
     '                                                          ''''####''''         
             ,#######,   #######,   ,#######,      ##                                
            ,#'     '#,  ##    ##  ,#'     '#,    #''#        ,####,    ,#,          
            ##       ##  ##   ,#'  ##            #'  '#       #'       ,# #          
            ##       ##  #######   ##           ,######,      #####,      #          
            '#,     ,#'  ##    ##  '#,     ,#' ,#      #,     #,   #      #          
             '#######'   ##     ##  '#######'  #'      '#     '####' #    #          



                #########################################################
                #                        -***-                          #
                #          Department of theory and spectroscopy        #
                #                                                       #
                #                      Frank Neese                      #
                #                                                       #
                #     Directorship, Architecture, Infrastructure        #
                #                    SHARK, DRIVERS                     #
                #        Core code/Algorithms in most modules           #
                #                                                       #
                #        Max Planck Institute fuer Kohlenforschung      #
                #                Kaiser Wilhelm Platz 1                 #
                #                 D-45470 Muelheim/Ruhr                 #
                #                      Germany                          #
                #                                                       #
                #                  All rights reserved                  #
                #                        -***-                          #
                #########################################################


                         Program Version 6.1.0  -  RELEASE   -
                                (GIT: $679e74b$)
                          ($2025-06-10 18:02:51 +0200$)


 With contributions from (in alphabetic order):
[Max-Planck-Institut fuer Kohlenforschung]                               
  Daniel Aravena         : Magnetic Suceptibility                        
  Michael Atanasov       : Ab Initio Ligand Field Theory (pilot matlab implementation)
  Alexander A. Auer      : GIAO ZORA, VPT2 properties, NMR spectrum      
  Ute Becker             : All parallelization in ORCA, NUMFREQ, NUMCALC 
  Giovanni Bistoni       : ED, misc. LED, open-shell LED, HFLD           
  Dmytro Bykov           : pre 5.0 version of the SCF Hessian            
  Marcos Casanova-Páez   : Triplet and SCS-CIS(D). UHF-(DLPNO)-IP/EA/STEOM-CCSD. UHF-CVS-IP/STEOM-CCSD   
  Vijay G. Chilkuri      : MRCI spin determinant printing, contributions to CSF-ICE 
  Pauline Colinet        : FMM embedding                                 
  Dipayan Datta          : RHF DLPNO-CCSD density                        
  Achintya Kumar Dutta   : EOM-CC, STEOM-CC                              
  Nicolas Foglia         : Exact transition moments, OPA infrastructure, MCD improvements    
  Dmitry Ganyushin       : Spin-Orbit,Spin-Spin,Magnetic field MRCI      
  Miquel Garcia-Rates    : C-PCM and meta-GGA Hessian, CCSD/C-PCM, Gaussian charge scheme 
  Tiago L. C. Gouveia    : GS-ROHF, GS-ROCIS                             
  Yang Guo               : DLPNO-NEVPT2, F12-NEVPT2, CIM, IAO-localization        
  Andreas Hansen         : Spin unrestricted coupled pair/coupled cluster methods 
  Ingolf Harden          : AUTO-CI MPn and infrastructure                
  Benjamin Helmich-Paris : MC-RPA, TRAH-(SCF,CASSCF), AVAS, COSX integrals, SCF dyn. polar., MC-PDFT, srDFT 
  Lee Huntington         : MR-EOM, pCC                                   
  Robert Izsak           : Overlap fitted RIJCOSX, COSX-SCS-MP3, EOM     
  Riya Kayal             : Wick's Theorem for AUTO-CI, AUTO-CI UHF-CCSDT 
  Emily Kempfer          : AUTO-CI RHF CISDT and CCSDT, approximate NEVPT4
  Christian Kollmar      : KDIIS, OOCD, Brueckner-CCSD(T), CCSD density, CASPT2, CASPT2-K, improved NEVPT2 
  Axel Koslowski         : Symmetry handling                             
  Simone Kossmann        : meta-GGA functionals, TD-DFT gradient, OOMP2, (MP2 Hessian; deprecated post 5.0) 
  Lucas Lang             : DCDCAS, Hyperfine gauge corrections, ICE-SOC+SSC
  Marvin Lechner         : AUTO-CI (C++ implementation), FIC-MRCC        
  Spencer Leger          : CASSCF response                               
  Dagmar Lenk            : GEPOL surface, SMD, ORCA-2-JSON               
  Dimitrios Liakos       : Extrapolation schemes; Compound Job, Property file
  Dimitrios Manganas     : Further ROCIS development; embedding schemes. LFT, Crystal Embedding 
  Dimitrios Pantazis     : SARC Basis sets                               
  Anastasios Papadopoulos: AUTO-CI, single reference methods and gradients 
  Taras Petrenko         : pre 6.0 DFT Hessian and TD-DFT gradient,  ECA, NRVS 
  Petra Pikulova         : Analytic Raman intensities                    
  Peter Pinski           : DLPNO-MP2, DLPNO-MP2 Gradient                 
  Shashank Vittal Rao    : ES-AILFT, MagRelax                            
  Christoph Reimann      : Effective Core Potentials                     
  Marius Retegan         : Local ZFS, SOC                                
  Christoph Riplinger    : Optimizer, TS searches, QM/MM, DLPNO-CCSD(T), (RO)-DLPNO pert. Triples 
  Michael Roemelt        : Original ROCIS implementation, recursive CI coupling coefficients
  Masaaki Saitow         : Open-shell DLPNO-CCSD energy and density      
  Barbara Sandhoefer     : DKH picture change effects                    
  Yorick L. A. Schmerwitz: GMF and freeze-and-release deltaSCF, NEB S-IDPP initial path                    
  Kantharuban Sivalingam : CASSCF convergence/infrastructure, NEVPT2, NEVPT3, NEVPT4(SD), FIC-MRCI and CEPA variants
  Bernardo de Souza      : ESD, SOC TD-DFT                               
  Georgi L. Stoychev     : AutoAux, RI-MP2 NMR, DLPNO-MP2 response, X2C  
  Van Anh Tran           : RI-MP2 g-tensors                              
  Willem Van den Heuvel  : Paramagnetic NMR                              
  Zikuan Wang            : NOTCH, Electric field optimization            
  Frank Wennmohs         : Technical directorship and infrastructure     
  Hang Xu                : AUTO-CI-Response properties                   
                                                                         
[FACCTs GmbH]                                                            
  Markus Bursch, Nicolas Foglia, Miquel Garcia-Rates, Ingolf Harden, Hagen Neugebauer, Anastasios Papadopoulos, 
  Christoph Riplinger, Bernardo de Souza, Georgi L. Stoychev                                                    
                                                                 
  APM, various basis sets, CI-OPT, improved COSX, DLPNO-Multilevel,           
  DOCKER, DRACO, updates on ESD, Fragmentator, GOAT, IRC, LR-CPCM, L-BFGS, MBIS, meta-GGA TD-DFT gradient, ML-optimized integration grids, 
  MM, NACMEs, nearIR, NEB, NEB-TS, NL-DFT gradient (VV10), 2- and 3-layer-ONIOM, interface openCOSMO-RS, QMMM,   
  Crystal-QMMM, RESP, rigid body optimization, SF, symmetry and pop. for TD-DFT, various functionals, SOLVATOR                                   
                                                                         
[Other institutions]                                                     
  V. Asgeirsson          : NEB                                           
  Christoph Bannwarth    : sTDA-DFT, sTD-DFT, PBEh-3c, B97-3c, D3        
  Giovanni Bistoni       : ETS/NOCV, ADLD/ADEX, COVALED                  
  Martin Brehm           : Molecular dynamics                            
  Ronald Cardenas        : ETS/NOCV                                      
  Martina Colucci        : COVALED                                       
  Sebastian Ehlert       : rSCAN, r2SCAN, r2SCAN-3c, D4, dhf basis sets  
  Marvin Friede          : D4 for Fr, Ra, Ac-Lr                          
  Lars Goerigk           : TD-DFT with DH, B97 family of functionals     
  Stefan Grimme          : VdW corrections, initial TS optimization, DFT functionals, gCP, sTDA/sTD-DF 
  Waldemar Hujo          : DFT-NL                                        
  H. Jonsson             : NEB                                           
  Holger Kruse           : gCP                                           
  Marcel Mueller         : wB97X-3c, vDZP basis set                      
  Hagen Neugebauer       : wr2SCAN, Native XTB                           
  Gianluca Regni         : ADLD/ADEX                                     
  Tobias Risthaus        : pre 6.0 range-separated hybrid DFT and stability analysis
  Lukas Wittmann         : regularized MP2, r2SCAN double-hybrids, wr2SCAN        
                                                                         
We gratefully acknowledge several colleagues who have allowed us to      
interface, adapt or use parts of their codes:                            
  Ed Valeev, F. Pavosevic, A. Kumar             : LibInt (2-el integral package), F12 methods 
  Garnet Chan, S. Sharma, J. Yang, R. Olivares  : DMRG                   
  Ulf Ekstrom                                   : XCFun DFT Library      
  Mihaly Kallay                                 : mrcc  (arbitrary order and MRCC methods)
  Frank Weinhold                                : gennbo (NPA and NBO analysis)           
  Simon Mueller                                 : openCOSMO-RS                            
  Christopher J. Cramer and Donald G. Truhlar   : smd solvation model                     
  S Lehtola, MJT Oliveira, MAL Marques          : LibXC Library                           
  Liviu Ungur et al                             : ANISO software                          


 Your calculation uses the libint2 library for the computation of 2-el integrals
 For citations please refer to: http://libint.valeyev.net

 Your ORCA version has been built with support for libXC version: 7.0.0
 For citations please refer to: https://libxc.gitlab.io

 This ORCA versions uses:
   CBLAS   interface :  Fast vector & matrix operations
   LAPACKE interface :  Fast linear algebra routines
   SCALAPACK package :  Parallel linear algebra routines
   Shared memory     :  Shared parallel matrices
   BLAS/LAPACK       :  OpenBLAS 0.3.29  USE64BITINT DYNAMIC_ARCH NO_AFFINITY Haswell SINGLE_THREADED
        Core in use  :  Haswell
   Copyright (c) 2011-2014, The OpenBLAS Project


  ***********************************
  * Starting time: Sat Aug  9 14:32:36 2025
  * Host name:     chemlab03
  * Process ID:    1450273
  * Working dir.:  /home/test/Desktop/Aishani MM/attachments
  ***********************************



***************************************
The coordinates will be read from file: v-input-coordinates.xyz
***************************************


Your calculation utilizes the semiempirical GFN2-xTB method
Please cite in your paper:
Bannwarth, C.; Ehlert S.; Grimme, S. J. Chem. Theory Comput. 2019, 15, 1652.
   

================================================================================

================================================================================
                                        WARNINGS
                       Please study these warnings very carefully!
================================================================================


================================================================================
 STARTING AUTOMATIC FRAGMENTATION: 
================================================================================

WARNING: Geometry Optimization
  ===> : Switching off AutoStart
         For restart on a previous wavefunction, please use MOREAD

WARNING: Found dipole moment calculation with XTB calculation
  ===> : Switching off dipole moment calculation


================================================================================
                                       INPUT FILE
================================================================================
NAME = v.inp
|  1> ! xtb goat
|  2> 
|  3> * xyzfile 0 1 v-input-coordinates.xyz
|  4> 
|  5>                          ****END OF INPUT****
================================================================================

                       *****************************
                       * Geometry Optimization Run *
                       *****************************


                       *********************************
                       *              GOAT             *
                       * Global Optimization Algorithm *
                       *********************************

Geometry optimization settings:
Update method            Update   .... BFGS
Choice of coordinates    CoordSys .... (2022) Redundant Internals
Initial Hessian          InHess   .... Almloef's Model
Max. no of cycles        MaxIter  .... 57

Convergence Tolerances:
Energy Change            TolE     ....  5.0000e-06 Eh
Max. Gradient            TolMAXG  ....  3.0000e-04 Eh/bohr
RMS Gradient             TolRMSG  ....  1.0000e-04 Eh/bohr
Max. Displacement        TolMAXD  ....  4.0000e-03 bohr
RMS Displacement         TolRMSD  ....  2.0000e-03 bohr
Strict Convergence                .... True

------------------------------------------------------------------------------
                        ORCA OPTIMIZATION COORDINATE SETUP
------------------------------------------------------------------------------

The optimization will be done in redundant internal coordinates (2022)
Making redundant internal coordinates   ...  (2022 redundants) done
Evaluating the initial hessian          ...  (Almloef) done
Evaluating the coordinates              ...  done
Calculating the B-matrix                .... done
Calculating the G-matrix                .... done
The number of degrees of freedom        ....   80

    -----------------------------------------------------------------
                    Redundant Internal Coordinates


    -----------------------------------------------------------------
         Definition                    Initial Value    Approx d2E/dq
    -----------------------------------------------------------------
      1. B(C   1,C   0)                  1.5455         0.352949   
      2. B(C   4,O   3)                  1.2199         1.045173   
      3. B(C   4,C   0)                  1.5416         0.358028   
      4. B(C   5,C   1)                  1.5326         0.370074   
      5. B(N   6,C   0)                  1.4828         0.398007   
      6. B(H   7,N   6)                  1.0232         0.412165   
      7. B(H   8,N   6)                  1.0183         0.419688   
      8. B(O   9,C   4)                  1.3573         0.630920   
      9. B(O   9,H   2)                  0.9807         0.481897   
     10. B(O   9,H   7)                  2.1635         0.010000   
     11. B(H  10,C   0)                  1.0972         0.350639   
     12. B(H  11,C   5)                  1.0945         0.354198   
     13. B(H  12,C   5)                  1.0956         0.352817   
     14. B(H  13,C   5)                  1.0938         0.355054   
     15. B(C  14,C   1)                  1.5330         0.369501   
     16. B(H  15,C   1)                  1.0998         0.347404   
     17. B(H  16,C  14)                  1.0956         0.352735   
     18. B(H  17,C  14)                  1.0943         0.354424   
     19. B(H  18,C  14)                  1.0947         0.353955   
     20. A(C   1,C   0,H  10)          109.1302         0.319917   
     21. A(C   1,C   0,C   4)          115.0198         0.357254   
     22. A(N   6,C   0,H  10)          107.6380         0.324331   
     23. A(C   4,C   0,H  10)          105.4034         0.320666   
     24. A(C   4,C   0,N   6)          109.7832         0.362381   
     25. A(C   1,C   0,N   6)          109.5585         0.361498   
     26. A(C   0,C   1,H  15)          107.1148         0.319434   
     27. A(C  14,C   1,H  15)          106.9399         0.321836   
     28. A(C   5,C   1,H  15)          106.0451         0.321918   
     29. A(C   5,C   1,C  14)          109.9854         0.362089   
     30. A(C   0,C   1,C  14)          113.5294         0.359176   
     31. A(C   0,C   1,C   5)          112.7342         0.359271   
     32. A(C   0,C   4,O   3)          127.3558         0.429150   
     33. A(C   0,C   4,O   9)          112.9706         0.392427   
     34. A(O   3,C   4,O   9)          119.4373         0.472508   
     35. A(C   1,C   5,H  11)          111.2742         0.322941   
     36. A(H  12,C   5,H  13)          106.9377         0.289267   
     37. A(H  11,C   5,H  13)          108.7015         0.289445   
     38. A(C   1,C   5,H  13)          112.0122         0.323069   
     39. A(H  11,C   5,H  12)          107.5108         0.289158   
     40. A(C   1,C   5,H  12)          110.2070         0.322734   
     41. A(C   0,N   6,H   8)          109.3139         0.331246   
     42. A(C   0,N   6,H   7)          107.1645         0.330257   
     43. A(H   7,N   6,H   8)          107.1214         0.299451   
     44. A(H   2,O   9,C   4)          103.2203         0.366415   
     45. A(H  16,C  14,H  18)          107.0541         0.289116   
     46. A(C   1,C  14,H  18)          111.2439         0.322823   
     47. A(H  16,C  14,H  17)          107.9415         0.289176   
     48. A(C   1,C  14,H  17)          111.6349         0.322893   
     49. A(H  17,C  14,H  18)          108.2123         0.289333   
     50. A(C   1,C  14,H  16)          110.5750         0.322640   
     51. D(C  14,C   1,C   0,H  10)   -176.9661         0.010023   
     52. D(C   5,C   1,C   0,C   4)    -61.0576         0.010023   
     53. D(C   5,C   1,C   0,N   6)    174.7347         0.010023   
     54. D(C  14,C   1,C   0,N   6)    -59.3476         0.010023   
     55. D(C  14,C   1,C   0,C   4)     64.8602         0.010023   
     56. D(C   5,C   1,C   0,H  10)     57.1161         0.010023   
     57. D(O   3,C   4,C   0,C   1)     31.5255         0.010000   
     58. D(O   9,C   4,C   0,C   1)   -154.1490         0.010000   
     59. D(O   3,C   4,C   0,H  10)    -88.7206         0.010000   
     60. D(O   9,C   4,C   0,N   6)    -30.0596         0.010000   
     61. D(O   3,C   4,C   0,N   6)    155.6148         0.010000   
     62. D(H  11,C   5,C   1,H  15)     71.2041         0.010948   
     63. D(H  11,C   5,C   1,C  14)   -173.5059         0.010948   
     64. D(H  11,C   5,C   1,C   0)    -45.7012         0.010948   
     65. D(H  12,C   5,C   1,C   0)   -164.8696         0.010948   
     66. D(H  12,C   5,C   1,H  15)    -47.9643         0.010948   
     67. D(H  12,C   5,C   1,C  14)     67.3257         0.010948   
     68. D(H   8,N   6,C   0,C   4)    157.8040         0.013528   
     69. D(H   8,N   6,C   0,C   1)    -74.9840         0.013528   
     70. D(H   7,N   6,C   0,H  10)    -72.2051         0.013528   
     71. D(H   7,N   6,C   0,C   4)     42.0349         0.013528   
     72. D(H   7,N   6,C   0,C   1)    169.2469         0.013528   
     73. D(H   2,O   9,C   4,O   3)     -4.0179         0.032323   
     74. D(H   2,O   9,C   4,C   0)   -178.8402         0.032323   
     75. D(H  17,C  14,C   1,H  15)   -176.3710         0.010916   
     76. D(H  17,C  14,C   1,C   5)     68.9069         0.010916   
     77. D(H  17,C  14,C   1,C   0)    -58.4564         0.010916   
     78. D(H  16,C  14,C   1,H  15)     63.4397         0.010916   
     79. D(H  16,C  14,C   1,C   5)    -51.2823         0.010916   
     80. D(H  16,C  14,C   1,C   0)   -178.6457         0.010916   
    -----------------------------------------------------------------

Number of atoms                         .... 19
Number of degrees of freedom            .... 80


         *************************************************************
         *                GEOMETRY OPTIMIZATION CYCLE   1            *
         *************************************************************
---------------------------------
CARTESIAN COORDINATES (ANGSTROEM)
---------------------------------
  C    -1.095431    2.582139   -0.516983
  C    -0.843707    1.059821   -0.429625
  H    -0.560028    4.998510    1.550987
  O     0.596513    3.179394    1.194015
  C    -0.445204    3.415921    0.604824
  C     0.643374    0.699477   -0.516186
  N    -2.554645    2.842627   -0.554437
  H    -2.684928    3.849751   -0.428947
  H    -2.915387    2.606318   -1.476929
  O    -1.094763    4.584119    0.840990
  H    -0.665330    2.964705   -1.451118
  H     1.137970    1.245984   -1.325279
  H     0.762261   -0.370335   -0.720203
  H     1.170389    0.905881    0.419839
  C    -1.470126    0.405920    0.807329
  H    -1.319085    0.602159   -1.309429
  H    -1.242458   -0.665472    0.833433
  H    -1.095486    0.852819    1.733327
  H    -2.560518    0.502284    0.797647

----------------------------
CARTESIAN COORDINATES (A.U.)
----------------------------
  NO LB    ZA    FRAG    MASS        X           Y           Z
   0 C   6.0000    1    12.011   -2.070064    4.879536   -0.976956
   1 C   6.0000    1    12.011   -1.594375    2.002772   -0.811874
   2 H   1.0000    1     1.008   -1.058299    9.445815    2.930940
   3 O   8.0000    1    15.999    1.127245    6.008184    2.256361
   4 C   6.0000    1    12.011   -0.841314    6.455156    1.142953
   5 C   6.0000    1    12.011    1.215800    1.321821   -0.975449
   6 N   7.0000    1    14.007   -4.827580    5.371787   -1.047733
   7 H   1.0000    1     1.008   -5.073778    7.274975   -0.810592
   8 H   1.0000    1     1.008   -5.509283    4.925227   -2.790991
   9 O   8.0000    1    15.999   -2.068803    8.662729    1.589241
  10 H   1.0000    1     1.008   -1.257292    5.602481   -2.742216
  11 H   1.0000    1     1.008    2.150451    2.354568   -2.504415
  12 H   1.0000    1     1.008    1.440464   -0.699832   -1.360987
  13 H   1.0000    1     1.008    2.211715    1.711868    0.793381
  14 C   6.0000    1    12.011   -2.778135    0.767077    1.525630
  15 H   1.0000    1     1.008   -2.492709    1.137916   -2.474463
  16 H   1.0000    1     1.008   -2.347905   -1.257560    1.574960
  17 H   1.0000    1     1.008   -2.070169    1.611594    3.275514
  18 H   1.0000    1     1.008   -4.838678    0.949180    1.507335

      -----------------------------------------------------------      
     |                   =====================                   |     
     |                           x T B                           |     
     |                   =====================                   |     
     |                         S. Grimme                         |     
     |          Mulliken Center for Theoretical Chemistry        |     
     |                    University of Bonn                     |     
      -----------------------------------------------------------      

   * xtb version 6.7.1 (edcfbbe) compiled by 'albert@albert-system' on 2024-07-22

   xtb is free software: you can redistribute it and/or modify it under
   the terms of the GNU Lesser General Public License as published by
   the Free Software Foundation, either version 3 of the License, or
   (at your option) any later version.
   
   xtb is distributed in the hope that it will be useful,
   but WITHOUT ANY WARRANTY; without even the implied warranty of
   MERCHANTABILITY or FITNESS FOR A PARTICULAR PURPOSE.  See the
   GNU Lesser General Public License for more details.
   
   Cite this work as:
   * C. Bannwarth, E. Caldeweyher, S. Ehlert, A. Hansen, P. Pracht,
     J. Seibert, S. Spicher, S. Grimme, WIREs Comput. Mol. Sci., 2020, 11,
     e01493. DOI: 10.1002/wcms.1493
   
   for GFN2-xTB:
   * C. Bannwarth, S. Ehlert and S. Grimme., J. Chem. Theory Comput., 2019,
     15, 1652-1671. DOI: 10.1021/acs.jctc.8b01176
   for GFN1-xTB:
   * S. Grimme, C. Bannwarth, P. Shushkov, J. Chem. Theory Comput., 2017,
     13, 1989-2009. DOI: 10.1021/acs.jctc.7b00118
   for GFN0-xTB:
   * P. Pracht, E. Caldeweyher, S. Ehlert, S. Grimme, ChemRxiv, 2019, preprint.
     DOI: 10.26434/chemrxiv.8326202.v1
   for GFN-FF:
   * S. Spicher and S. Grimme, Angew. Chem. Int. Ed., 2020, 59, 15665-15673.
     DOI: 10.1002/anie.202004239
   
   for ALPB and GBSA implicit solvation:
   * S. Ehlert, M. Stahn, S. Spicher, S. Grimme, J. Chem. Theory Comput.,
     2021, 17, 4250-4261. DOI: 10.1021/acs.jctc.1c00471
   
   for ddCOSMO and CPCM-X implicit solvation:
   * M. Stahn, S. Ehlert, S. Grimme, J. Phys. Chem. A,
     2023, XX, XXXX-XXXX. DOI: 10.1021/acs.jpca.3c04382
   
   for DFT-D4:
   * E. Caldeweyher, C. Bannwarth and S. Grimme, J. Chem. Phys., 2017,
     147, 034112. DOI: 10.1063/1.4993215
   * E. Caldeweyher, S. Ehlert, A. Hansen, H. Neugebauer, S. Spicher,
     C. Bannwarth and S. Grimme, J. Chem. Phys., 2019, 150, 154122.
     DOI: 10.1063/1.5090222
   * E. Caldeweyher, J.-M. Mewes, S. Ehlert and S. Grimme, Phys. Chem. Chem. Phys.
     2020, 22, 8499-8512. DOI: 10.1039/D0CP00502A
   
   for sTDA-xTB:
   * S. Grimme and C. Bannwarth, J. Chem. Phys., 2016, 145, 054103.
     DOI: 10.1063/1.4959605
   
   in the mass-spec context:
   * V. Asgeirsson, C. Bauer and S. Grimme, Chem. Sci., 2017, 8, 4879.
     DOI: 10.1039/c7sc00601b
   * J. Koopman and S. Grimme, ACS Omega 2019, 4, 12, 15120-15133.
     DOI: 10.1021/acsomega.9b02011
   
   for metadynamics refer to:
   * S. Grimme, J. Chem. Theory Comput., 2019, 155, 2847-2862
     DOI: 10.1021/acs.jctc.9b00143
   
   for SPH calculations refer to:
   * S. Spicher and S. Grimme, J. Chem. Theory Comput., 2021, 17, 1701-1714
     DOI: 10.1021/acs.jctc.0c01306
   
   for ONIOM refer to:
   * C. Plett, A. Katbashev, S. Ehlert, S. Grimme, M. Bursch,
     Phys. Chem. Chem. Phys., 2023, 25, 17860-17868. DOI: 10.1039/D3CP02178E
   
   for DIPRO refer to:
   * J. Kohn, N. Gildemeister, S. Grimme, D. Fazzi, A. Hansen,
     J. Chem. Phys., 2023, just accepted.
   
   for PTB refer to:
   * S. Grimme, M. Mueller, A. Hansen, J. Chem. Phys., 2023, 158, 124111.
     DOI: 10.1063/5.0137838
   
   with help from (in alphabetical order)
   P. Atkinson, C. Bannwarth, F. Bohle, G. Brandenburg, E. Caldeweyher
   M. Checinski, S. Dohm, S. Ehlert, S. Ehrlich, I. Gerasimov, C. Hölzer
   A. Katbashev, J. Kohn, J. Koopman, C. Lavigne, S. Lehtola, F. März, M. Müller,
   F. Musil, H. Neugebauer, J. Pisarek, C. Plett, P. Pracht, F. Pultar,
   J. Seibert, P. Shushkov, S. Spicher, M. Stahn, M. Steiner, T. Strunk,
   J. Stückrath, T. Rose, and J. Unsleber
   
 * started run on 2025/08/09 at 14:32:36.739     
   ID    Z sym.   atoms
    1    6 C      1, 2, 5, 6, 15
    2    1 H      3, 8, 9, 11-14, 16-19
    3    8 O      4, 10
    4    7 N      7

           -------------------------------------------------
          |                Calculation Setup                |
           -------------------------------------------------

          program call               : /home/test/orca/orca_6_1_0_linux_x86-64_shared_openmpi418/otool_xtb v_XTB.xyz --grad -c 0 -u 0 -P 1 --namespace v --input v_XTB.input.tmp --acc 0.200000
          calculation namespace      : v
          coordinate file            : v_XTB.xyz
          omp threads                :                     1


           -------------------------------------------------
          |                 G F N 2 - x T B                 |
           -------------------------------------------------

        Reference                      10.1021/acs.jctc.8b01176
      * Hamiltonian:
        H0-scaling (s, p, d)           1.850000    2.230000    2.230000
        zeta-weighting                 0.500000
      * Dispersion:
        s8                             2.700000
        a1                             0.520000
        a2                             5.000000
        s9                             5.000000
      * Repulsion:
        kExp                           1.500000    1.000000
        rExp                           1.000000
      * Coulomb:
        alpha                          2.000000
        third order                    shell-resolved
        anisotropic                    true
        a3                             3.000000
        a5                             4.000000
        cn-shift                       1.200000
        cn-exp                         4.000000
        max-rad                        5.000000


          ...................................................
          :                      SETUP                      :
          :.................................................:
          :  # basis functions                  43          :
          :  # atomic orbitals                  43          :
          :  # shells                           27          :
          :  # electrons                        48          :
          :  max. iterations                   250          :
          :  Hamiltonian                  GFN2-xTB          :
          :  restarted?                      false          :
          :  GBSA solvation                  false          :
          :  PC potential                    false          :
          :  electronic temp.          300.0000000     K    :
          :  accuracy                    0.2000000          :
          :  -> integral cutoff          0.3198970E+02      :
          :  -> integral neglect         0.2000000E-08      :
          :  -> SCF convergence          0.2000000E-06 Eh   :
          :  -> wf. convergence          0.2000000E-04 e    :
          :  Broyden damping             0.4000000          :
          :  net charge                          0          :
          :  unpaired electrons                  0          :
          ...................................................

 iter      E             dE          RMSdq      gap      omega  full diag
   1    -27.5906752 -0.275907E+02  0.364E+00    4.22       0.0  T
   2    -27.6391347 -0.484595E-01  0.189E+00    3.75       1.0  T
   3    -27.6425410 -0.340631E-02  0.110E+00    3.95       1.0  T
   4    -27.6458062 -0.326523E-02  0.195E-01    3.49       1.0  T
   5    -27.6460114 -0.205230E-03  0.801E-02    3.49       1.0  T
   6    -27.6460205 -0.902224E-05  0.319E-02    3.49       1.0  T
   7    -27.6460250 -0.453297E-05  0.692E-03    3.50       3.3  T
   8    -27.6460251 -0.140486E-06  0.277E-03    3.50       8.3  T
   9    -27.6460252 -0.138978E-07  0.879E-04    3.50      26.1  T
  10    -27.6460252 -0.151137E-08  0.381E-04    3.50      60.1  T
  11    -27.6460252 -0.349768E-09  0.116E-04    3.50     198.2  T
  12    -27.6460252 -0.444231E-10  0.517E-05    3.50     444.0  T

   *** convergence criteria satisfied after 12 iterations ***

         #    Occupation            Energy/Eh            Energy/eV
      -------------------------------------------------------------
         1        2.0000           -0.7477904             -20.3484
       ...           ...                  ...                  ...
        18        2.0000           -0.4652428             -12.6599
        19        2.0000           -0.4552063             -12.3868
        20        2.0000           -0.4427620             -12.0482
        21        2.0000           -0.4391479             -11.9498
        22        2.0000           -0.4331535             -11.7867
        23        2.0000           -0.4119681             -11.2102
        24        2.0000           -0.3770868             -10.2611 (HOMO)
        25                         -0.2485818              -6.7643 (LUMO)
        26                          0.0088862               0.2418
        27                          0.0218775               0.5953
        28                          0.0598019               1.6273
        29                          0.0845785               2.3015
       ...                                ...                  ...
        43                          0.5687048              15.4752
      -------------------------------------------------------------
                  HL-Gap            0.1285050 Eh            3.4968 eV
             Fermi-level           -0.3128343 Eh           -8.5127 eV

 SCC (total)                   0 d,  0 h,  0 min,  0.011 sec
 SCC setup                      ...        0 min,  0.000 sec (  2.158%)
 Dispersion                     ...        0 min,  0.000 sec (  0.854%)
 classical contributions        ...        0 min,  0.000 sec (  0.230%)
 integral evaluation            ...        0 min,  0.001 sec ( 13.414%)
 iterations                     ...        0 min,  0.005 sec ( 49.606%)
 molecular gradient             ...        0 min,  0.004 sec ( 32.456%)
 printout                       ...        0 min,  0.000 sec (  1.121%)

         :::::::::::::::::::::::::::::::::::::::::::::::::::::
         ::                     SUMMARY                     ::
         :::::::::::::::::::::::::::::::::::::::::::::::::::::
         :: total energy             -27.363752995840 Eh    ::
         :: gradient norm              0.050711988963 Eh/a0 ::
         :: HOMO-LUMO gap              3.496799973274 eV    ::
         ::.................................................::
         :: SCC energy               -27.645954755579 Eh    ::
         :: -> isotropic ES            0.059667701240 Eh    ::
         :: -> anisotropic ES          0.005498215059 Eh    ::
         :: -> anisotropic XC          0.010954845441 Eh    ::
         :: -> dispersion             -0.012754281472 Eh    ::
         :: repulsion energy           0.282201759739 Eh    ::
         :: add. restraining           0.000000000000 Eh    ::
         :: total charge              -0.000000000000 e     ::
         :::::::::::::::::::::::::::::::::::::::::::::::::::::


Property printout bound to 'properties.out'

           -------------------------------------------------
          | TOTAL ENERGY              -27.363752995840 Eh   |
          | GRADIENT NORM               0.050711988963 Eh/α |
          | HOMO-LUMO GAP               3.496799973274 eV   |
           -------------------------------------------------

------------------------------------------------------------------------
 * finished run on 2025/08/09 at 14:32:36.760     
------------------------------------------------------------------------
 total:
 * wall-time:     0 d,  0 h,  0 min,  0.020 sec
 *  cpu-time:     0 d,  0 h,  0 min,  0.017 sec
 * ratio c/w:     0.863 speedup
 SCF:
 * wall-time:     0 d,  0 h,  0 min,  0.011 sec
 *  cpu-time:     0 d,  0 h,  0 min,  0.010 sec
 * ratio c/w:     0.899 speedup


-------------------------   --------------------
FINAL SINGLE POINT ENERGY       -27.363752995840
-------------------------   --------------------


-------------
DIPOLE MOMENT
-------------
                                X             Y             Z
Total Dipole Moment    :     -0.33000       0.45200      -0.67200
                        -----------------------------------------
Magnitude (a.u.)       :      0.87452
Magnitude (Debye)      :      2.22286


------------------
CARTESIAN GRADIENT
------------------

   1   C   :    0.012766328   -0.002514453   -0.010353130
   2   C   :   -0.004286990    0.007223652   -0.000862142
   3   H   :    0.008519509   -0.003555795    0.005261618
   4   O   :    0.026562841   -0.000697017    0.015426141
   5   C   :   -0.014027461    0.002789606   -0.002473530
   6   C   :   -0.005687577    0.001298699   -0.000731289
   7   N   :   -0.009654677   -0.006171809   -0.001262906
   8   H   :    0.002627499    0.006874191   -0.000252751
   9   H   :   -0.001122507    0.001074738   -0.003395792
  10   O   :   -0.014492835    0.011797824   -0.006311032
  11   H   :   -0.009855636    0.000088439    0.001239043
  12   H   :    0.002146519    0.001052525   -0.003536671
  13   H   :    0.002426354   -0.004084820   -0.000503379
  14   H   :    0.003895562   -0.002536660    0.004402230
  15   C   :    0.004069286   -0.000655441   -0.004058559
  16   H   :    0.001955293   -0.004340229   -0.000607606
  17   H   :   -0.001104599   -0.005378836    0.001881687
  18   H   :    0.000197852    0.000611924    0.005169399
  19   H   :   -0.004934759   -0.002876538    0.000968671

Difference to translation invariance:
           :   -0.0000000000    0.0000000000   -0.0000000000

Difference to rotation invariance:
           :   -0.0000001900    0.0000000456    0.0000003463

Norm of the Cartesian gradient     ...    0.0507119890
RMS gradient                       ...    0.0067169670
MAX gradient                       ...    0.0265628405
------------------------------------------------------------------------------
                         ORCA GEOMETRY RELAXATION STEP
------------------------------------------------------------------------------

Reading the OPT-File                    .... done
Getting information on internals        .... done
Copying old internal coords+grads       .... done
Making the new internal coordinates     .... (2022 redundants) done
Validating the new internal coordinates .... (2022 redundants) done
Calculating the B-matrix                .... done
Calculating the G,G- and P matrices     .... done
Transforming gradient to internals      .... done
Projecting the internal gradient        .... done
Number of atoms                         ....  19
Number of internal coordinates          ....  80
Current Energy                          ....   -27.363752996 Eh
Current gradient norm                   ....     0.050711989 Eh/bohr
Maximum allowed component of the step   ....  0.300
Current trust radius                    ....  0.300
Evaluating the initial hessian          ....  (Almloef) done
Projecting the Hessian                  .... done
Forming the augmented Hessian           .... done
Diagonalizing the augmented Hessian     .... done
Last element of RFO vector              ....  0.971205867
Lowest eigenvalues of augmented Hessian:
 -0.006792004  0.010002743  0.010237917  0.010930109  0.011153493
Length of the computed step             ....  0.245305167
The final length of the internal step   ....  0.245305167
Converting the step to Cartesian space:
 Initial RMS(Int)=    0.0274259514
Transforming coordinates:
 Iter   0:  RMS(Cart)=    0.0841187842 RMS(Int)=    1.2085812347
 Iter   5:  RMS(Cart)=    0.0000000387 RMS(Int)=    0.0000000341
done
Storing new coordinates                 .... done

                                .--------------------.
          ----------------------|Geometry convergence|-------------------------
          Item                value                   Tolerance       Converged
          ---------------------------------------------------------------------
          RMS gradient        0.0055799076            0.0001000000      NO
          MAX gradient        0.0302675743            0.0003000000      NO
          RMS step            0.0274259514            0.0020000000      NO
          MAX step            0.0831721938            0.0040000000      NO
          -------------------------------------------------------------------------
          ........................................................
          Max(Bonds)      0.0246      Max(Angles)    2.44
          Max(Dihed)        4.77      Max(Improp)    0.00
          ---------------------------------------------------------------------

    ---------------------------------------------------------------------------
                         Redundant Internal Coordinates
                            (Angstroem and degrees)

        Definition                    Value    dE/dq     Step     New-Value
    ----------------------------------------------------------------------------
     1. B(C   1,C   0)                1.5455  0.009445 -0.0139    1.5316   
     2. B(C   4,O   3)                1.2199  0.030268 -0.0152    1.2047   
     3. B(C   4,C   0)                1.5416  0.016479 -0.0246    1.5170   
     4. B(C   5,C   1)                1.5326  0.003723 -0.0052    1.5273   
     5. B(N   6,C   0)                1.4828  0.008058 -0.0110    1.4717   
     6. B(H   7,N   6)                1.0232  0.006584 -0.0081    1.0151   
     7. B(H   8,N   6)                1.0183  0.003224 -0.0040    1.0143   
     8. B(O   9,C   4)                1.3573  0.009744 -0.0081    1.3492   
     9. B(O   9,H   2)                0.9807  0.006952 -0.0075    0.9732   
    10. B(O   9,H   7)                2.1635  0.000587 -0.0016    2.1619   
    11. B(H  10,C   0)                1.0972 -0.004887  0.0072    1.1045   
    12. B(H  11,C   5)                1.0945  0.004110 -0.0060    1.0885   
    13. B(H  12,C   5)                1.0956  0.004346 -0.0064    1.0892   
    14. B(H  13,C   5)                1.0938  0.005165 -0.0076    1.0863   
    15. B(C  14,C   1)                1.5330  0.007460 -0.0105    1.5225   
    16. B(H  15,C   1)                1.0998  0.001447 -0.0022    1.0976   
    17. B(H  16,C  14)                1.0956  0.005075 -0.0075    1.0882   
    18. B(H  17,C  14)                1.0943  0.004692 -0.0069    1.0875   
    19. B(H  18,C  14)                1.0947  0.004654 -0.0068    1.0879   
    20. A(C   1,C   0,H  10)          109.13  0.001378   -0.32    108.81   
    21. A(C   1,C   0,C   4)          115.02  0.003156   -1.28    113.74   
    22. A(N   6,C   0,H  10)          107.64 -0.005835    2.44    110.08   
    23. A(C   4,C   0,H  10)          105.40  0.001434   -0.37    105.04   
    24. A(C   4,C   0,N   6)          109.78 -0.001966    0.04    109.82   
    25. A(C   1,C   0,N   6)          109.56  0.001201   -0.24    109.32   
    26. A(C   0,C   1,H  15)          107.11  0.000182   -0.25    106.87   
    27. A(C  14,C   1,H  15)          106.94 -0.000658    0.72    107.66   
    28. A(C   5,C   1,H  15)          106.05 -0.002723    1.51    107.56   
    29. A(C   5,C   1,C  14)          109.99 -0.003938    0.64    110.63   
    30. A(C   0,C   1,C  14)          113.53  0.006627   -1.93    111.60   
    31. A(C   0,C   1,C   5)          112.73 -0.000037   -0.41    112.32   
    32. A(C   0,C   4,O   3)          127.36  0.005146   -0.48    126.88   
    33. A(C   0,C   4,O   9)          112.97  0.000381   -0.03    112.94   
    34. A(O   3,C   4,O   9)          119.44 -0.005764    0.87    120.31   
    35. A(C   1,C   5,H  11)          111.27  0.001397   -0.23    111.05   
    36. A(H  12,C   5,H  13)          106.94 -0.005464    0.97    107.91   
    37. A(H  11,C   5,H  13)          108.70  0.001691   -0.41    108.29   
    38. A(C   1,C   5,H  13)          112.01  0.003016   -0.61    111.41   
    39. A(H  11,C   5,H  12)          107.51 -0.001468    0.41    107.92   
    40. A(C   1,C   5,H  12)          110.21  0.000404   -0.05    110.16   
    41. A(C   0,N   6,H   8)          109.31  0.000946    0.10    109.41   
    42. A(C   0,N   6,H   7)          107.16 -0.007191    1.35    108.51   
    43. A(H   7,N   6,H   8)          107.12  0.000708    0.52    107.64   
    44. A(H   2,O   9,C   4)          103.22 -0.014871    2.28    105.50   
    45. A(H  16,C  14,H  18)          107.05 -0.005620    1.11    108.16   
    46. A(C   1,C  14,H  18)          111.24  0.002355   -0.39    110.85   
    47. A(H  16,C  14,H  17)          107.94 -0.002251    0.32    108.26   
    48. A(C   1,C  14,H  17)          111.63  0.003538   -0.66    110.98   
    49. A(H  17,C  14,H  18)          108.21  0.000093    0.00    108.21   
    50. A(C   1,C  14,H  16)          110.58  0.001358   -0.28    110.29   
    51. D(C  14,C   1,C   0,H  10)   -176.97  0.004346   -4.77   -181.73   
    52. D(C   5,C   1,C   0,C   4)    -61.06 -0.000586   -2.18    -63.23   
    53. D(C   5,C   1,C   0,N   6)    174.73 -0.001292   -1.08    173.66   
    54. D(C  14,C   1,C   0,N   6)    -59.35 -0.001209   -2.14    -61.49   
    55. D(C  14,C   1,C   0,C   4)     64.86 -0.000503   -3.24     61.62   
    56. D(C   5,C   1,C   0,H  10)     57.12  0.004263   -3.70     53.42   
    57. D(O   3,C   4,C   0,C   1)     31.53  0.001659   -2.81     28.71   
    58. D(O   9,C   4,C   0,C   1)   -154.15 -0.001554    1.68   -152.47   
    59. D(O   3,C   4,C   0,H  10)    -88.72 -0.002936   -1.40    -90.12   
    60. D(O   9,C   4,C   0,N   6)    -30.06  0.000830    0.43    -29.63   
    61. D(O   3,C   4,C   0,N   6)    155.61  0.004043   -4.06    151.55   
    62. D(H  11,C   5,C   1,H  15)     71.20  0.001085   -2.06     69.15   
    63. D(H  11,C   5,C   1,C  14)   -173.51 -0.003081   -0.09   -173.60   
    64. D(H  11,C   5,C   1,C   0)    -45.70  0.002562   -2.47    -48.17   
    65. D(H  12,C   5,C   1,C   0)   -164.87  0.003240   -2.80   -167.67   
    66. D(H  12,C   5,C   1,H  15)    -47.96  0.001763   -2.39    -50.35   
    67. D(H  12,C   5,C   1,C  14)     67.33 -0.002403   -0.42     66.90   
    68. D(H   8,N   6,C   0,C   4)    157.80 -0.003736    2.33    160.13   
    69. D(H   8,N   6,C   0,C   1)    -74.98 -0.000233    0.54    -74.45   
    70. D(H   7,N   6,C   0,H  10)    -72.21  0.001267    0.05    -72.16   
    71. D(H   7,N   6,C   0,C   4)     42.03 -0.001183    0.95     42.98   
    72. D(H   7,N   6,C   0,C   1)    169.25  0.002319   -0.85    168.40   
    73. D(H   2,O   9,C   4,O   3)     -4.02 -0.001529    2.58     -1.44   
    74. D(H   2,O   9,C   4,C   0)   -178.84  0.000750   -1.44   -180.28   
    75. D(H  17,C  14,C   1,H  15)   -176.37 -0.002337   -0.58   -176.95   
    76. D(H  17,C  14,C   1,C   5)     68.91  0.003203   -3.07     65.84   
    77. D(H  17,C  14,C   1,C   0)    -58.46  0.001269   -1.53    -59.98   
    78. D(H  16,C  14,C   1,H  15)     63.44 -0.002763   -0.36     63.08   
    79. D(H  16,C  14,C   1,C   5)    -51.28  0.002778   -2.85    -54.13   
    80. D(H  16,C  14,C   1,C   0)   -178.65  0.000844   -1.31   -179.95   
    ----------------------------------------------------------------------------

Geometry step timings:
Preparation and reading OPT file:      0.000 s ( 1.229 %)
Internal coordinates            :      0.000 s ( 1.570 %)
B/P matrices and projection     :      0.000 s (33.174 %)
Hessian update/contruction      :      0.000 s (11.195 %)
Making the step                 :      0.000 s (25.666 %)
Converting the step to Cartesian:      0.000 s ( 3.686 %)
Storing new data                :      0.000 s ( 1.433 %)
Checking convergence            :      0.000 s ( 1.775 %)
Final printing                  :      0.000 s (20.205 %)
Total time                      :      0.001 s

Time for energy+gradient        :      0.025 s
Time for complete geometry iter :      0.027 s

         *************************************************************
         *                GEOMETRY OPTIMIZATION CYCLE   2            *
         *************************************************************
---------------------------------
CARTESIAN COORDINATES (ANGSTROEM)
---------------------------------
  C    -1.083639    2.572415   -0.532489
  C    -0.841693    1.062822   -0.441446
  H    -0.631697    4.919443    1.607585
  O     0.526739    3.064937    1.230315
  C    -0.458817    3.360148    0.603515
  C     0.639887    0.705753   -0.542306
  N    -2.531707    2.831033   -0.582050
  H    -2.686531    3.825250   -0.447896
  H    -2.886495    2.586165   -1.500201
  O    -1.114335    4.509231    0.868778
  H    -0.598535    2.956126   -1.447543
  H     1.108472    1.215437   -1.382203
  H     0.758084   -0.366482   -0.692725
  H     1.175578    0.977113    0.362913
  C    -1.450013    0.472977    0.823471
  H    -1.351260    0.606194   -1.299687
  H    -1.265168   -0.598483    0.866923
  H    -1.019612    0.929331    1.711754
  H    -2.525848    0.632614    0.846547

----------------------------
CARTESIAN COORDINATES (A.U.)
----------------------------
  NO LB    ZA    FRAG    MASS        X           Y           Z
   0 C   6.0000    1    12.011   -2.047781    4.861159   -1.006259
   1 C   6.0000    1    12.011   -1.590570    2.008442   -0.834213
   2 H   1.0000    1     1.008   -1.193735    9.296399    3.037895
   3 O   8.0000    1    15.999    0.995392    5.791892    2.324959
   4 C   6.0000    1    12.011   -0.867038    6.349760    1.140478
   5 C   6.0000    1    12.011    1.209212    1.333681   -1.024810
   6 N   7.0000    1    14.007   -4.784234    5.349878   -1.099915
   7 H   1.0000    1     1.008   -5.076807    7.228675   -0.846401
   8 H   1.0000    1     1.008   -5.454684    4.887143   -2.834970
   9 O   8.0000    1    15.999   -2.105787    8.521213    1.641753
  10 H   1.0000    1     1.008   -1.131068    5.586268   -2.735460
  11 H   1.0000    1     1.008    2.094708    2.296844   -2.611984
  12 H   1.0000    1     1.008    1.432572   -0.692551   -1.309060
  13 H   1.0000    1     1.008    2.221520    1.846475    0.685806
  14 C   6.0000    1    12.011   -2.740127    0.893797    1.556135
  15 H   1.0000    1     1.008   -2.553511    1.145541   -2.456052
  16 H   1.0000    1     1.008   -2.390820   -1.130969    1.638247
  17 H   1.0000    1     1.008   -1.926787    1.756180    3.234746
  18 H   1.0000    1     1.008   -4.773161    1.195466    1.599742

      -----------------------------------------------------------      
     |                   =====================                   |     
     |                           x T B                           |     
     |                   =====================                   |     
     |                         S. Grimme                         |     
     |          Mulliken Center for Theoretical Chemistry        |     
     |                    University of Bonn                     |     
      -----------------------------------------------------------      

   * xtb version 6.7.1 (edcfbbe) compiled by 'albert@albert-system' on 2024-07-22

   xtb is free software: you can redistribute it and/or modify it under
   the terms of the GNU Lesser General Public License as published by
   the Free Software Foundation, either version 3 of the License, or
   (at your option) any later version.
   
   xtb is distributed in the hope that it will be useful,
   but WITHOUT ANY WARRANTY; without even the implied warranty of
   MERCHANTABILITY or FITNESS FOR A PARTICULAR PURPOSE.  See the
   GNU Lesser General Public License for more details.
   
   Cite this work as:
   * C. Bannwarth, E. Caldeweyher, S. Ehlert, A. Hansen, P. Pracht,
     J. Seibert, S. Spicher, S. Grimme, WIREs Comput. Mol. Sci., 2020, 11,
     e01493. DOI: 10.1002/wcms.1493
   
   for GFN2-xTB:
   * C. Bannwarth, S. Ehlert and S. Grimme., J. Chem. Theory Comput., 2019,
     15, 1652-1671. DOI: 10.1021/acs.jctc.8b01176
   for GFN1-xTB:
   * S. Grimme, C. Bannwarth, P. Shushkov, J. Chem. Theory Comput., 2017,
     13, 1989-2009. DOI: 10.1021/acs.jctc.7b00118
   for GFN0-xTB:
   * P. Pracht, E. Caldeweyher, S. Ehlert, S. Grimme, ChemRxiv, 2019, preprint.
     DOI: 10.26434/chemrxiv.8326202.v1
   for GFN-FF:
   * S. Spicher and S. Grimme, Angew. Chem. Int. Ed., 2020, 59, 15665-15673.
     DOI: 10.1002/anie.202004239
   
   for ALPB and GBSA implicit solvation:
   * S. Ehlert, M. Stahn, S. Spicher, S. Grimme, J. Chem. Theory Comput.,
     2021, 17, 4250-4261. DOI: 10.1021/acs.jctc.1c00471
   
   for ddCOSMO and CPCM-X implicit solvation:
   * M. Stahn, S. Ehlert, S. Grimme, J. Phys. Chem. A,
     2023, XX, XXXX-XXXX. DOI: 10.1021/acs.jpca.3c04382
   
   for DFT-D4:
   * E. Caldeweyher, C. Bannwarth and S. Grimme, J. Chem. Phys., 2017,
     147, 034112. DOI: 10.1063/1.4993215
   * E. Caldeweyher, S. Ehlert, A. Hansen, H. Neugebauer, S. Spicher,
     C. Bannwarth and S. Grimme, J. Chem. Phys., 2019, 150, 154122.
     DOI: 10.1063/1.5090222
   * E. Caldeweyher, J.-M. Mewes, S. Ehlert and S. Grimme, Phys. Chem. Chem. Phys.
     2020, 22, 8499-8512. DOI: 10.1039/D0CP00502A
   
   for sTDA-xTB:
   * S. Grimme and C. Bannwarth, J. Chem. Phys., 2016, 145, 054103.
     DOI: 10.1063/1.4959605
   
   in the mass-spec context:
   * V. Asgeirsson, C. Bauer and S. Grimme, Chem. Sci., 2017, 8, 4879.
     DOI: 10.1039/c7sc00601b
   * J. Koopman and S. Grimme, ACS Omega 2019, 4, 12, 15120-15133.
     DOI: 10.1021/acsomega.9b02011
   
   for metadynamics refer to:
   * S. Grimme, J. Chem. Theory Comput., 2019, 155, 2847-2862
     DOI: 10.1021/acs.jctc.9b00143
   
   for SPH calculations refer to:
   * S. Spicher and S. Grimme, J. Chem. Theory Comput., 2021, 17, 1701-1714
     DOI: 10.1021/acs.jctc.0c01306
   
   for ONIOM refer to:
   * C. Plett, A. Katbashev, S. Ehlert, S. Grimme, M. Bursch,
     Phys. Chem. Chem. Phys., 2023, 25, 17860-17868. DOI: 10.1039/D3CP02178E
   
   for DIPRO refer to:
   * J. Kohn, N. Gildemeister, S. Grimme, D. Fazzi, A. Hansen,
     J. Chem. Phys., 2023, just accepted.
   
   for PTB refer to:
   * S. Grimme, M. Mueller, A. Hansen, J. Chem. Phys., 2023, 158, 124111.
     DOI: 10.1063/5.0137838
   
   with help from (in alphabetical order)
   P. Atkinson, C. Bannwarth, F. Bohle, G. Brandenburg, E. Caldeweyher
   M. Checinski, S. Dohm, S. Ehlert, S. Ehrlich, I. Gerasimov, C. Hölzer
   A. Katbashev, J. Kohn, J. Koopman, C. Lavigne, S. Lehtola, F. März, M. Müller,
   F. Musil, H. Neugebauer, J. Pisarek, C. Plett, P. Pracht, F. Pultar,
   J. Seibert, P. Shushkov, S. Spicher, M. Stahn, M. Steiner, T. Strunk,
   J. Stückrath, T. Rose, and J. Unsleber
   
 * started run on 2025/08/09 at 14:32:36.766     
   ID    Z sym.   atoms
    1    6 C      1, 2, 5, 6, 15
    2    1 H      3, 8, 9, 11-14, 16-19
    3    8 O      4, 10
    4    7 N      7

           -------------------------------------------------
          |                Calculation Setup                |
           -------------------------------------------------

          program call               : /home/test/orca/orca_6_1_0_linux_x86-64_shared_openmpi418/otool_xtb v_XTB.xyz --grad -c 0 -u 0 -P 1 --namespace v --input v_XTB.input.tmp --acc 0.200000
          calculation namespace      : v
          coordinate file            : v_XTB.xyz
          omp threads                :                     1


           -------------------------------------------------
          |                 G F N 2 - x T B                 |
           -------------------------------------------------

        Reference                      10.1021/acs.jctc.8b01176
      * Hamiltonian:
        H0-scaling (s, p, d)           1.850000    2.230000    2.230000
        zeta-weighting                 0.500000
      * Dispersion:
        s8                             2.700000
        a1                             0.520000
        a2                             5.000000
        s9                             5.000000
      * Repulsion:
        kExp                           1.500000    1.000000
        rExp                           1.000000
      * Coulomb:
        alpha                          2.000000
        third order                    shell-resolved
        anisotropic                    true
        a3                             3.000000
        a5                             4.000000
        cn-shift                       1.200000
        cn-exp                         4.000000
        max-rad                        5.000000

q/qsh data taken from xtbrestart
CAMM data taken from xtbrestart

          ...................................................
          :                      SETUP                      :
          :.................................................:
          :  # basis functions                  43          :
          :  # atomic orbitals                  43          :
          :  # shells                           27          :
          :  # electrons                        48          :
          :  max. iterations                   250          :
          :  Hamiltonian                  GFN2-xTB          :
          :  restarted?                       true          :
          :  GBSA solvation                  false          :
          :  PC potential                    false          :
          :  electronic temp.          300.0000000     K    :
          :  accuracy                    0.2000000          :
          :  -> integral cutoff          0.3198970E+02      :
          :  -> integral neglect         0.2000000E-08      :
          :  -> SCF convergence          0.2000000E-06 Eh   :
          :  -> wf. convergence          0.2000000E-04 e    :
          :  Broyden damping             0.4000000          :
          :  net charge                          0          :
          :  unpaired electrons                  0          :
          ...................................................

 iter      E             dE          RMSdq      gap      omega  full diag
   1    -27.6684073 -0.276684E+02  0.290E-01    3.72       0.0  T
   2    -27.6684870 -0.796659E-04  0.172E-01    3.66       1.0  T
   3    -27.6684690  0.180269E-04  0.579E-02    3.68       1.0  T
   4    -27.6685011 -0.321718E-04  0.714E-03    3.66       3.2  T
   5    -27.6685012 -0.946196E-07  0.353E-03    3.66       6.5  T
   6    -27.6685013 -0.174451E-07  0.981E-04    3.67      23.4  T
   7    -27.6685013 -0.155693E-08  0.439E-04    3.67      52.2  T
   8    -27.6685013 -0.571085E-09  0.102E-04    3.66     224.7  T
   9    -27.6685013 -0.140155E-10  0.346E-05    3.66     663.2  T

   *** convergence criteria satisfied after 9 iterations ***

         #    Occupation            Energy/Eh            Energy/eV
      -------------------------------------------------------------
         1        2.0000           -0.7489252             -20.3793
       ...           ...                  ...                  ...
        18        2.0000           -0.4637188             -12.6184
        19        2.0000           -0.4549025             -12.3785
        20        2.0000           -0.4419450             -12.0259
        21        2.0000           -0.4385864             -11.9345
        22        2.0000           -0.4323680             -11.7653
        23        2.0000           -0.4097370             -11.1495
        24        2.0000           -0.3762729             -10.2389 (HOMO)
        25                         -0.2415923              -6.5741 (LUMO)
        26                          0.0191101               0.5200
        27                          0.0448912               1.2216
        28                          0.0743429               2.0230
        29                          0.0958471               2.6081
       ...                                ...                  ...
        43                          0.6238480              16.9758
      -------------------------------------------------------------
                  HL-Gap            0.1346806 Eh            3.6648 eV
             Fermi-level           -0.3089326 Eh           -8.4065 eV

 SCC (total)                   0 d,  0 h,  0 min,  0.012 sec
 SCC setup                      ...        0 min,  0.000 sec (  0.839%)
 Dispersion                     ...        0 min,  0.000 sec (  0.497%)
 classical contributions        ...        0 min,  0.000 sec (  0.115%)
 integral evaluation            ...        0 min,  0.001 sec (  6.289%)
 iterations                     ...        0 min,  0.009 sec ( 74.167%)
 molecular gradient             ...        0 min,  0.002 sec ( 17.549%)
 printout                       ...        0 min,  0.000 sec (  0.489%)

         :::::::::::::::::::::::::::::::::::::::::::::::::::::
         ::                     SUMMARY                     ::
         :::::::::::::::::::::::::::::::::::::::::::::::::::::
         :: total energy             -27.368099436347 Eh    ::
         :: gradient norm              0.022632820124 Eh/a0 ::
         :: HOMO-LUMO gap              3.664844598714 eV    ::
         ::.................................................::
         :: SCC energy               -27.668434534352 Eh    ::
         :: -> isotropic ES            0.059634796031 Eh    ::
         :: -> anisotropic ES          0.004680589318 Eh    ::
         :: -> anisotropic XC          0.010199419233 Eh    ::
         :: -> dispersion             -0.012969010516 Eh    ::
         :: repulsion energy           0.300335098004 Eh    ::
         :: add. restraining           0.000000000000 Eh    ::
         :: total charge               0.000000000000 e     ::
         :::::::::::::::::::::::::::::::::::::::::::::::::::::


Property printout bound to 'properties.out'

           -------------------------------------------------
          | TOTAL ENERGY              -27.368099436347 Eh   |
          | GRADIENT NORM               0.022632820124 Eh/α |
          | HOMO-LUMO GAP               3.664844598714 eV   |
           -------------------------------------------------

------------------------------------------------------------------------
 * finished run on 2025/08/09 at 14:32:36.785     
------------------------------------------------------------------------
 total:
 * wall-time:     0 d,  0 h,  0 min,  0.018 sec
 *  cpu-time:     0 d,  0 h,  0 min,  0.012 sec
 * ratio c/w:     0.628 speedup
 SCF:
 * wall-time:     0 d,  0 h,  0 min,  0.012 sec
 *  cpu-time:     0 d,  0 h,  0 min,  0.006 sec
 * ratio c/w:     0.461 speedup


-------------------------   --------------------
FINAL SINGLE POINT ENERGY       -27.368099436350
-------------------------   --------------------


-------------
DIPOLE MOMENT
-------------
                                X             Y             Z
Total Dipole Moment    :     -0.31700       0.53300      -0.65300
                        -----------------------------------------
Magnitude (a.u.)       :      0.90055
Magnitude (Debye)      :      2.28901


------------------
CARTESIAN GRADIENT
------------------

   1   C   :    0.010475108   -0.004904991    0.000209399
   2   C   :   -0.003502479    0.007043904    0.000915964
   3   H   :    0.004112226   -0.003637217    0.001220597
   4   O   :    0.003754186   -0.000908544    0.004368671
   5   C   :    0.000585306    0.000876877   -0.004861957
   6   C   :   -0.002855285    0.001340155    0.000797092
   7   N   :   -0.007152985   -0.001931787    0.000334012
   8   H   :    0.002270998    0.001273734   -0.000582580
   9   H   :    0.000505567    0.001309788   -0.000687744
  10   O   :   -0.007850602    0.004646007   -0.001608429
  11   H   :   -0.004632117    0.000047811    0.000536025
  12   H   :    0.000357880   -0.000188880    0.000209818
  13   H   :    0.001146669   -0.000520143   -0.000151551
  14   H   :    0.001457869   -0.001358591    0.000368218
  15   C   :    0.002932576    0.000876979   -0.004011156
  16   H   :    0.000769405   -0.001901460    0.000377182
  17   H   :   -0.000624848   -0.000461367    0.000708611
  18   H   :   -0.001063387   -0.000042281    0.000907711
  19   H   :   -0.000686088   -0.001559994    0.000950118

Difference to translation invariance:
           :   -0.0000000000   -0.0000000000    0.0000000000

Difference to rotation invariance:
           :   -0.0000000545   -0.0000002181    0.0000001195

Norm of the Cartesian gradient     ...    0.0226328201
RMS gradient                       ...    0.0029977903
MAX gradient                       ...    0.0104751083
------------------------------------------------------------------------------
                         ORCA GEOMETRY RELAXATION STEP
------------------------------------------------------------------------------

Reading the OPT-File                    .... done
Getting information on internals        .... done
Copying old internal coords+grads       .... done
Making the new internal coordinates     .... (2022 redundants) done
Validating the new internal coordinates .... (2022 redundants) done
Calculating the B-matrix                .... done
Calculating the G,G- and P matrices     .... done
Transforming gradient to internals      .... done
Projecting the internal gradient        .... done
Number of atoms                         ....  19
Number of internal coordinates          ....  80
Current Energy                          ....   -27.368099436 Eh
Current gradient norm                   ....     0.022632820 Eh/bohr
Maximum allowed component of the step   ....  0.300
Current trust radius                    ....  0.300
Updating the Hessian (BFGS)             .... done
Forming the augmented Hessian           .... done
Diagonalizing the augmented Hessian     .... done
Last element of RFO vector              ....  0.946666620
Lowest eigenvalues of augmented Hessian:
 -0.002690644  0.010003176  0.010048624  0.010891764  0.010943409
Length of the computed step             ....  0.340367652
Warning: the length of the step is outside the trust region - taking restricted step instead
The input lambda is                     ....     0.008207
   iter:   5  x=    0.001872  g=  194.706609 f(x)=     0.444259
   iter:  10  x=   -0.004582  g=   11.098272 f(x)=     0.000033
The output lambda is                    ....    -0.004582 (12 iterations)
The final length of the internal step   ....  0.300000000
Converting the step to Cartesian space:
 Initial RMS(Int)=    0.0335410197
Transforming coordinates:
 Iter   0:  RMS(Cart)=    0.0730924335 RMS(Int)=    0.9864811734
 Iter   5:  RMS(Cart)=    0.0000003119 RMS(Int)=    0.0000001898
done
Storing new coordinates                 .... done
The predicted energy change is          ....    -0.001455023
Previously predicted energy change      ....    -0.003600355
Actually observed energy change         ....    -0.004346441
Ratio of predicted to observed change   ....     1.207225465
New trust radius                        ....     0.450000000

                                .--------------------.
          ----------------------|Geometry convergence|-------------------------
          Item                value                   Tolerance       Converged
          ---------------------------------------------------------------------
          Energy change      -0.0043464405            0.0000050000      NO
          RMS gradient        0.0018982442            0.0001000000      NO
          MAX gradient        0.0099975570            0.0003000000      NO
          RMS step            0.0335410197            0.0020000000      NO
          MAX step            0.0955403863            0.0040000000      NO
          -------------------------------------------------------------------------
          ........................................................
          Max(Bonds)      0.0160      Max(Angles)    2.65
          Max(Dihed)        5.47      Max(Improp)    0.00
          ---------------------------------------------------------------------

    ---------------------------------------------------------------------------
                         Redundant Internal Coordinates
                            (Angstroem and degrees)

        Definition                    Value    dE/dq     Step     New-Value
    ----------------------------------------------------------------------------
     1. B(C   1,C   0)                1.5316 -0.003445  0.0030    1.5346   
     2. B(C   4,O   3)                1.2047  0.005567 -0.0079    1.1968   
     3. B(C   4,C   0)                1.5170  0.000142 -0.0073    1.5097   
     4. B(C   5,C   1)                1.5273  0.000193 -0.0018    1.5256   
     5. B(N   6,C   0)                1.4718  0.004486 -0.0110    1.4608   
     6. B(H   7,N   6)                1.0151  0.000810 -0.0034    1.0117   
     7. B(H   8,N   6)                1.0143  0.000130 -0.0013    1.0130   
     8. B(O   9,C   4)                1.3492  0.002601 -0.0051    1.3442   
     9. B(O   9,H   2)                0.9732  0.001433 -0.0041    0.9691   
    10. B(O   9,H   7)                2.1618 -0.000050  0.0160    2.1778   
    11. B(H  10,C   0)                1.1045 -0.002462  0.0068    1.1113   
    12. B(H  11,C   5)                1.0885 -0.000096 -0.0014    1.0870   
    13. B(H  12,C   5)                1.0892  0.000657 -0.0030    1.0862   
    14. B(H  13,C   5)                1.0863  0.000686 -0.0034    1.0829   
    15. B(C  14,C   1)                1.5225 -0.000964 -0.0010    1.5215   
    16. B(H  15,C   1)                1.0976  0.000139 -0.0009    1.0968   
    17. B(H  16,C  14)                1.0882  0.000376 -0.0027    1.0854   
    18. B(H  17,C  14)                1.0875  0.000303 -0.0024    1.0850   
    19. B(H  18,C  14)                1.0879  0.000470 -0.0027    1.0851   
    20. A(C   1,C   0,H  10)          108.80  0.000701   -0.43    108.37   
    21. A(C   1,C   0,C   4)          113.72 -0.000831   -0.29    113.43   
    22. A(N   6,C   0,H  10)          110.07 -0.002361    1.71    111.78   
    23. A(C   4,C   0,H  10)          105.02  0.001146   -0.44    104.58   
    24. A(C   4,C   0,N   6)          109.83 -0.000038   -0.09    109.74   
    25. A(C   1,C   0,N   6)          109.31  0.001251   -0.34    108.97   
    26. A(C   0,C   1,H  15)          106.87  0.000732   -0.60    106.27   
    27. A(C  14,C   1,H  15)          107.64 -0.000280    0.36    107.99   
    28. A(C   5,C   1,H  15)          107.54 -0.000789    0.94    108.48   
    29. A(C   5,C   1,C  14)          110.60 -0.001240    0.64    111.24   
    30. A(C   0,C   1,C  14)          111.60  0.002690   -1.38    110.22   
    31. A(C   0,C   1,C   5)          112.32 -0.001141    0.15    112.47   
    32. A(C   0,C   4,O   3)          126.82  0.000680   -0.41    126.41   
    33. A(C   0,C   4,O   9)          112.91  0.001523   -0.60    112.32   
    34. A(O   3,C   4,O   9)          120.26 -0.002177    0.42    120.68   
    35. A(C   1,C   5,H  11)          111.04  0.000568   -0.19    110.85   
    36. A(H  12,C   5,H  13)          107.91 -0.002532    0.87    108.77   
    37. A(H  11,C   5,H  13)          108.28  0.000079   -0.18    108.11   
    38. A(C   1,C   5,H  13)          111.40  0.001950   -0.65    110.75   
    39. A(H  11,C   5,H  12)          107.92 -0.000747    0.35    108.27   
    40. A(C   1,C   5,H  12)          110.15  0.000507   -0.13    110.03   
    41. A(C   0,N   6,H   8)          109.40 -0.000399    0.37    109.77   
    42. A(C   0,N   6,H   7)          108.52 -0.004291    1.51    110.03   
    43. A(H   7,N   6,H   8)          107.62  0.000397    0.69    108.31   
    44. A(H   2,O   9,C   4)          105.50 -0.009998    2.65    108.15   
    45. A(H  16,C  14,H  18)          108.16 -0.002719    1.01    109.17   
    46. A(C   1,C  14,H  18)          110.85  0.001734   -0.49    110.36   
    47. A(H  16,C  14,H  17)          108.26 -0.000800    0.21    108.47   
    48. A(C   1,C  14,H  17)          110.97  0.001813   -0.62    110.35   
    49. A(H  17,C  14,H  18)          108.21 -0.000314    0.10    108.31   
    50. A(C   1,C  14,H  16)          110.29  0.000109   -0.13    110.16   
    51. D(C  14,C   1,C   0,H  10)    178.28  0.001668   -5.47    172.81   
    52. D(C   5,C   1,C   0,C   4)    -63.23  0.000708   -4.33    -67.56   
    53. D(C   5,C   1,C   0,N   6)    173.64  0.000400   -3.74    169.90   
    54. D(C  14,C   1,C   0,N   6)    -61.50 -0.000033   -3.86    -65.35   
    55. D(C  14,C   1,C   0,C   4)     61.63  0.000274   -4.45     57.18   
    56. D(C   5,C   1,C   0,H  10)     53.42  0.002102   -5.36     48.06   
    57. D(O   3,C   4,C   0,C   1)     28.72 -0.000521    1.32     30.04   
    58. D(O   9,C   4,C   0,C   1)   -152.48  0.000934   -4.62   -157.10   
    59. D(O   3,C   4,C   0,H  10)    -90.12 -0.001666    2.31    -87.81   
    60. D(O   9,C   4,C   0,N   6)    -29.64  0.001945   -5.35    -34.99   
    61. D(O   3,C   4,C   0,N   6)    151.56  0.000491    0.60    152.15   
    62. D(H  11,C   5,C   1,H  15)     69.14  0.000670   -2.27     66.87   
    63. D(H  11,C   5,C   1,C  14)   -173.59 -0.000811   -0.99   -174.58   
    64. D(H  11,C   5,C   1,C   0)    -48.17  0.000918   -2.20    -50.38   
    65. D(H  12,C   5,C   1,C   0)   -167.67  0.001158   -2.44   -170.11   
    66. D(H  12,C   5,C   1,H  15)    -50.36  0.000910   -2.51    -52.87   
    67. D(H  12,C   5,C   1,C  14)     66.92 -0.000571   -1.23     65.69   
    68. D(H   8,N   6,C   0,C   4)    160.15 -0.001441    2.19    162.34   
    69. D(H   8,N   6,C   0,C   1)    -74.44 -0.001653    1.52    -72.93   
    70. D(H   7,N   6,C   0,H  10)    -72.16  0.000726   -0.02    -72.18   
    71. D(H   7,N   6,C   0,C   4)     42.99  0.000743    0.35     43.34   
    72. D(H   7,N   6,C   0,C   1)    168.39  0.000531   -0.32    168.08   
    73. D(H   2,O   9,C   4,O   3)     -1.42  0.000559   -2.34     -3.76   
    74. D(H   2,O   9,C   4,C   0)    179.70 -0.000823    3.09    182.79   
    75. D(H  17,C  14,C   1,H  15)   -176.95 -0.000751   -1.49   -178.43   
    76. D(H  17,C  14,C   1,C   5)     65.83  0.001045   -3.14     62.70   
    77. D(H  17,C  14,C   1,C   0)    -59.98  0.001467   -2.79    -62.77   
    78. D(H  16,C  14,C   1,H  15)     63.09 -0.000996   -1.26     61.83   
    79. D(H  16,C  14,C   1,C   5)    -54.14  0.000801   -2.91    -57.04   
    80. D(H  16,C  14,C   1,C   0)   -179.95  0.001222   -2.56   -182.51   
    ----------------------------------------------------------------------------

Geometry step timings:
Preparation and reading OPT file:      0.000 s ( 0.713 %)
Internal coordinates            :      0.000 s ( 1.189 %)
B/P matrices and projection     :      0.000 s (25.446 %)
Hessian update/contruction      :      0.000 s (11.593 %)
Making the step                 :      0.001 s (36.920 %)
Converting the step to Cartesian:      0.000 s ( 2.913 %)
Storing new data                :      0.000 s ( 1.189 %)
Checking convergence            :      0.000 s ( 1.843 %)
Final printing                  :      0.000 s (18.133 %)
Total time                      :      0.002 s

Time for energy+gradient        :      0.022 s
Time for complete geometry iter :      0.024 s

         *************************************************************
         *                GEOMETRY OPTIMIZATION CYCLE   3            *
         *************************************************************
---------------------------------
CARTESIAN COORDINATES (ANGSTROEM)
---------------------------------
  C    -1.076365    2.571103   -0.513766
  C    -0.838210    1.056792   -0.442779
  H    -0.683182    4.956985    1.594432
  O     0.447529    3.018172    1.313426
  C    -0.511785    3.323941    0.666391
  C     0.636464    0.691317   -0.581108
  N    -2.511497    2.822344   -0.616064
  H    -2.701657    3.804880   -0.467113
  H    -2.837901    2.572160   -1.541854
  O    -1.119834    4.507764    0.855083
  H    -0.523916    2.971425   -1.390940
  H     1.075539    1.176438   -1.449175
  H     0.743775   -0.382907   -0.700661
  H     1.192361    1.001658    0.294910
  C    -1.427847    0.491313    0.840750
  H    -1.384953    0.619922   -1.287223
  H    -1.297747   -0.585904    0.869247
  H    -0.931608    0.920472    1.704948
  H    -2.485754    0.724148    0.904750

----------------------------
CARTESIAN COORDINATES (A.U.)
----------------------------
  NO LB    ZA    FRAG    MASS        X           Y           Z
   0 C   6.0000    1    12.011   -2.034036    4.858681   -0.970876
   1 C   6.0000    1    12.011   -1.583988    1.997048   -0.836732
   2 H   1.0000    1     1.008   -1.291027    9.367345    3.013039
   3 O   8.0000    1    15.999    0.845707    5.703518    2.482016
   4 C   6.0000    1    12.011   -0.967133    6.281339    1.259297
   5 C   6.0000    1    12.011    1.202742    1.306399   -1.098135
   6 N   7.0000    1    14.007   -4.746042    5.333456   -1.164191
   7 H   1.0000    1     1.008   -5.105391    7.190182   -0.882716
   8 H   1.0000    1     1.008   -5.362857    4.860678   -2.913681
   9 O   8.0000    1    15.999   -2.116180    8.518440    1.615873
  10 H   1.0000    1     1.008   -0.990058    5.615179   -2.628496
  11 H   1.0000    1     1.008    2.032474    2.223145   -2.738544
  12 H   1.0000    1     1.008    1.405531   -0.723589   -1.324058
  13 H   1.0000    1     1.008    2.253236    1.892859    0.557299
  14 C   6.0000    1    12.011   -2.698240    0.928447    1.588787
  15 H   1.0000    1     1.008   -2.617182    1.171483   -2.432500
  16 H   1.0000    1     1.008   -2.452387   -1.107197    1.642638
  17 H   1.0000    1     1.008   -1.760484    1.739440    3.221885
  18 H   1.0000    1     1.008   -4.697395    1.368440    1.709731

      -----------------------------------------------------------      
     |                   =====================                   |     
     |                           x T B                           |     
     |                   =====================                   |     
     |                         S. Grimme                         |     
     |          Mulliken Center for Theoretical Chemistry        |     
     |                    University of Bonn                     |     
      -----------------------------------------------------------      

   * xtb version 6.7.1 (edcfbbe) compiled by 'albert@albert-system' on 2024-07-22

   xtb is free software: you can redistribute it and/or modify it under
   the terms of the GNU Lesser General Public License as published by
   the Free Software Foundation, either version 3 of the License, or
   (at your option) any later version.
   
   xtb is distributed in the hope that it will be useful,
   but WITHOUT ANY WARRANTY; without even the implied warranty of
   MERCHANTABILITY or FITNESS FOR A PARTICULAR PURPOSE.  See the
   GNU Lesser General Public License for more details.
   
   Cite this work as:
   * C. Bannwarth, E. Caldeweyher, S. Ehlert, A. Hansen, P. Pracht,
     J. Seibert, S. Spicher, S. Grimme, WIREs Comput. Mol. Sci., 2020, 11,
     e01493. DOI: 10.1002/wcms.1493
   
   for GFN2-xTB:
   * C. Bannwarth, S. Ehlert and S. Grimme., J. Chem. Theory Comput., 2019,
     15, 1652-1671. DOI: 10.1021/acs.jctc.8b01176
   for GFN1-xTB:
   * S. Grimme, C. Bannwarth, P. Shushkov, J. Chem. Theory Comput., 2017,
     13, 1989-2009. DOI: 10.1021/acs.jctc.7b00118
   for GFN0-xTB:
   * P. Pracht, E. Caldeweyher, S. Ehlert, S. Grimme, ChemRxiv, 2019, preprint.
     DOI: 10.26434/chemrxiv.8326202.v1
   for GFN-FF:
   * S. Spicher and S. Grimme, Angew. Chem. Int. Ed., 2020, 59, 15665-15673.
     DOI: 10.1002/anie.202004239
   
[...]
     DOI: 10.1039/c7sc00601b
   * J. Koopman and S. Grimme, ACS Omega 2019, 4, 12, 15120-15133.
     DOI: 10.1021/acsomega.9b02011
   
   for metadynamics refer to:
   * S. Grimme, J. Chem. Theory Comput., 2019, 155, 2847-2862
     DOI: 10.1021/acs.jctc.9b00143
   
   for SPH calculations refer to:
   * S. Spicher and S. Grimme, J. Chem. Theory Comput., 2021, 17, 1701-1714
     DOI: 10.1021/acs.jctc.0c01306
   
   for ONIOM refer to:
   * C. Plett, A. Katbashev, S. Ehlert, S. Grimme, M. Bursch,
     Phys. Chem. Chem. Phys., 2023, 25, 17860-17868. DOI: 10.1039/D3CP02178E
   
   for DIPRO refer to:
   * J. Kohn, N. Gildemeister, S. Grimme, D. Fazzi, A. Hansen,
     J. Chem. Phys., 2023, just accepted.
   
   for PTB refer to:
   * S. Grimme, M. Mueller, A. Hansen, J. Chem. Phys., 2023, 158, 124111.
     DOI: 10.1063/5.0137838
   
   with help from (in alphabetical order)
   P. Atkinson, C. Bannwarth, F. Bohle, G. Brandenburg, E. Caldeweyher
   M. Checinski, S. Dohm, S. Ehlert, S. Ehrlich, I. Gerasimov, C. Hölzer
   A. Katbashev, J. Kohn, J. Koopman, C. Lavigne, S. Lehtola, F. März, M. Müller,
   F. Musil, H. Neugebauer, J. Pisarek, C. Plett, P. Pracht, F. Pultar,
   J. Seibert, P. Shushkov, S. Spicher, M. Stahn, M. Steiner, T. Strunk,
   J. Stückrath, T. Rose, and J. Unsleber
   
 * started run on 2025/08/09 at 14:32:37.417     
   ID    Z sym.   atoms
    1    6 C      1, 2, 5, 6, 15
    2    1 H      3, 8, 9, 11-14, 16-19
    3    8 O      4, 10
    4    7 N      7

           -------------------------------------------------
          |                Calculation Setup                |
           -------------------------------------------------

          program call               : /home/test/orca/orca_6_1_0_linux_x86-64_shared_openmpi418/otool_xtb v_XTB.xyz --grad -c 0 -u 0 -P 1 --namespace v --input v_XTB.input.tmp --acc 0.200000
          calculation namespace      : v
          coordinate file            : v_XTB.xyz
          omp threads                :                     1


           -------------------------------------------------
          |                 G F N 2 - x T B                 |
           -------------------------------------------------

        Reference                      10.1021/acs.jctc.8b01176
      * Hamiltonian:
        H0-scaling (s, p, d)           1.850000    2.230000    2.230000
        zeta-weighting                 0.500000
      * Dispersion:
        s8                             2.700000
        a1                             0.520000
        a2                             5.000000
        s9                             5.000000
      * Repulsion:
        kExp                           1.500000    1.000000
        rExp                           1.000000
      * Coulomb:
        alpha                          2.000000
        third order                    shell-resolved
        anisotropic                    true
        a3                             3.000000
        a5                             4.000000
        cn-shift                       1.200000
        cn-exp                         4.000000
        max-rad                        5.000000

q/qsh data taken from xtbrestart
CAMM data taken from xtbrestart

          ...................................................
          :                      SETUP                      :
          :.................................................:
          :  # basis functions                  43          :
          :  # atomic orbitals                  43          :
          :  # shells                           27          :
          :  # electrons                        48          :
          :  max. iterations                   250          :
          :  Hamiltonian                  GFN2-xTB          :
          :  restarted?                       true          :
          :  GBSA solvation                  false          :
          :  PC potential                    false          :
          :  electronic temp.          300.0000000     K    :
          :  accuracy                    0.2000000          :
          :  -> integral cutoff          0.3198970E+02      :
          :  -> integral neglect         0.2000000E-08      :
          :  -> SCF convergence          0.2000000E-06 Eh   :
          :  -> wf. convergence          0.2000000E-04 e    :
          :  Broyden damping             0.4000000          :
          :  net charge                          0          :
          :  unpaired electrons                  0          :
          ...................................................

 iter      E             dE          RMSdq      gap      omega  full diag
   1    -27.6738631 -0.276739E+02  0.405E-03    3.78       0.0  T
   2    -27.6738631 -0.545527E-08  0.236E-03    3.78       9.7  T
   3    -27.6738631  0.348948E-10  0.371E-04    3.78      61.9  T
   4    -27.6738631 -0.126282E-08  0.116E-04    3.78     197.2  T
   5    -27.6738631 -0.253593E-10  0.592E-05    3.78     387.8  T

   *** convergence criteria satisfied after 5 iterations ***

         #    Occupation            Energy/Eh            Energy/eV
      -------------------------------------------------------------
         1        2.0000           -0.7449723             -20.2717
       ...           ...                  ...                  ...
        18        2.0000           -0.4670553             -12.7092
        19        2.0000           -0.4584465             -12.4750
        20        2.0000           -0.4419950             -12.0273
        21        2.0000           -0.4389473             -11.9444
        22        2.0000           -0.4350859             -11.8393
        23        2.0000           -0.4101543             -11.1609
        24        2.0000           -0.3731819             -10.1548 (HOMO)
        25                         -0.2342329              -6.3738 (LUMO)
        26                          0.0264929               0.7209
        27                          0.0514445               1.3999
        28                          0.0681531               1.8545
        29                          0.1004850               2.7343
       ...                                ...                  ...
        43                          0.6328532              17.2208
      -------------------------------------------------------------
                  HL-Gap            0.1389490 Eh            3.7810 eV
             Fermi-level           -0.3037074 Eh           -8.2643 eV

 SCC (total)                   0 d,  0 h,  0 min,  0.007 sec
 SCC setup                      ...        0 min,  0.000 sec (  1.259%)
 Dispersion                     ...        0 min,  0.000 sec (  0.805%)
 classical contributions        ...        0 min,  0.000 sec (  0.173%)
 integral evaluation            ...        0 min,  0.001 sec ( 10.014%)
 iterations                     ...        0 min,  0.004 sec ( 52.528%)
 molecular gradient             ...        0 min,  0.003 sec ( 34.201%)
 printout                       ...        0 min,  0.000 sec (  0.924%)

         :::::::::::::::::::::::::::::::::::::::::::::::::::::
         ::                     SUMMARY                     ::
         :::::::::::::::::::::::::::::::::::::::::::::::::::::
         :: total energy             -27.370391362142 Eh    ::
         :: gradient norm              0.000065036136 Eh/a0 ::
         :: HOMO-LUMO gap              3.780995587766 eV    ::
         ::.................................................::
         :: SCC energy               -27.673795697417 Eh    ::
         :: -> isotropic ES            0.060194668795 Eh    ::
         :: -> anisotropic ES          0.005371860021 Eh    ::
         :: -> anisotropic XC          0.009763604016 Eh    ::
         :: -> dispersion             -0.013155566365 Eh    ::
         :: repulsion energy           0.303404335275 Eh    ::
         :: add. restraining           0.000000000000 Eh    ::
         :: total charge              -0.000000000000 e     ::
         :::::::::::::::::::::::::::::::::::::::::::::::::::::


Property printout bound to 'properties.out'

           -------------------------------------------------
          | TOTAL ENERGY              -27.370391362142 Eh   |
          | GRADIENT NORM               0.000065036136 Eh/α |
          | HOMO-LUMO GAP               3.780995587766 eV   |
           -------------------------------------------------

------------------------------------------------------------------------
 * finished run on 2025/08/09 at 14:32:37.431     
------------------------------------------------------------------------
 total:
 * wall-time:     0 d,  0 h,  0 min,  0.013 sec
 *  cpu-time:     0 d,  0 h,  0 min,  0.012 sec
 * ratio c/w:     0.899 speedup
 SCF:
 * wall-time:     0 d,  0 h,  0 min,  0.008 sec
 *  cpu-time:     0 d,  0 h,  0 min,  0.006 sec
 * ratio c/w:     0.854 speedup


-------------------------   --------------------
FINAL SINGLE POINT ENERGY       -27.370391362140
-------------------------   --------------------


-------------
DIPOLE MOMENT
-------------
                                X             Y             Z
Total Dipole Moment    :     -0.55500       0.23200      -0.38600
                        -----------------------------------------
Magnitude (a.u.)       :      0.71473
Magnitude (Debye)      :      1.81671

                                *** OPTIMIZATION RUN DONE ***

		     ------------------------------
			                   _   
			                  | |  
			  __ _  ___   __ _| |_ 
			 / _` |/ _ \ / _` | __|
			| (_| | (_) | (_| | |_ 
			 \__, |\___/ \__,_|\__|
			 __/ |                
			|___/                 

		      A Global Optimizer Algorithm
		     ------------------------------

Global parameters
-----------------
  GOAT version                               ... default
  Minimum global steps                       ... 3
  Number of base workers                     ... 4
  Split workers by                           ... 2
  Final number of workers                    ... 8
  Number of available CPUs                   ... 1
  Parameter list (worker : temperature)      ...  0 : 2903.97,  1 : 1451.98, 
                                                  2 :  725.99,  3 :  363.00, 
                                                  4 : 2903.97,  5 : 1451.98, 
                                                  6 :  725.99,  7 :  363.00 
  GradComp (mean : sigma)                    ... 1.00 : 0.50
  Number of fragments                        ... 1
  Number of atoms                            ... 19
  Flexibility parameter                      ... 0.83
  Optimizations per global step              ... 272
  Optimizations per worker                   ... 34

Filtering criteria
------------------
  RMSD                                       ... 0.125 Angs (atom. pos.)
  EnDiff                                     ... 0.100 kcal/mol
  RotConst                                   ... 1.00-2.50 %
  Maximum Conf. Energy                       ... 6.000 kcal/mol

Thermodynamics
--------------
  Ensemble temperature                       ... 298.15 K
  Degeneracy of conformers                   ... 1
  *No rotamers will be included in Gconf

------------------------------------------------------------------------------
   Iter  MinTemp     MaxEn       GradComp    NOpt   NProcs    Output
------------------------------------------------------------------------------
   0     2903.97     57.00    1.00 : 0.50      34        1    v.goat.0.0.out
   1     1451.98     57.00    1.00 : 0.50      34        1    v.goat.0.1.out
   2      725.99     57.00    1.00 : 0.50      34        1    v.goat.0.2.out
   3      363.00     57.00    1.00 : 0.50      34        1    v.goat.0.3.out
   4     2903.97     57.00    1.00 : 0.50      34        1    v.goat.0.4.out
   5     1451.98     57.00    1.00 : 0.50      34        1    v.goat.0.5.out
   6      725.99     57.00    1.00 : 0.50      34        1    v.goat.0.6.out
   7      363.00     57.00    1.00 : 0.50      34        1    v.goat.0.7.out

			     GOAT Global Iter 1
		Iter    Min En       Sconf       Gconf   
		        Hartree      cal/(molK)  kcal/mol
		=========================================

		   1    -27.375709   3.890       -0.679

   0     2903.97     57.00    1.00 : 0.50      34        1    v.goat.1.0.out
   1     1451.98     57.00    1.00 : 0.50      34        1    v.goat.1.1.out
   2      725.99     57.00    1.00 : 0.50      34        1    v.goat.1.2.out
   3      363.00     57.00    1.00 : 0.50      34        1    v.goat.1.3.out
   4     2903.97     57.00    1.00 : 0.50      34        1    v.goat.1.4.out
   5     1451.98     57.00    1.00 : 0.50      34        1    v.goat.1.5.out
   6      725.99     57.00    1.00 : 0.50      34        1    v.goat.1.6.out
   7      363.00     57.00    1.00 : 0.50      34        1    v.goat.1.7.out

			     GOAT Global Iter 2
		Iter    Min En       Sconf       Gconf   
		        Hartree      cal/(molK)  kcal/mol
		=========================================

		   1    -27.375709   3.890       -0.679
		   2    -27.375709   3.918       -0.681

   0     2903.97     57.00    1.00 : 0.50      34        1    v.goat.2.0.out
   1     1451.98     57.00    1.00 : 0.50      34        1    v.goat.2.1.out
   2      725.99     57.00    1.00 : 0.50      34        1    v.goat.2.2.out
   3      363.00     57.00    1.00 : 0.50      34        1    v.goat.2.3.out
   4     2903.97     57.00    1.00 : 0.50      34        1    v.goat.2.4.out
   5     1451.98     57.00    1.00 : 0.50      34        1    v.goat.2.5.out
   6      725.99     57.00    1.00 : 0.50      34        1    v.goat.2.6.out
   7      363.00     57.00    1.00 : 0.50      34        1    v.goat.2.7.out

			     GOAT Global Iter 3
		Iter    Min En       Sconf       Gconf   
		        Hartree      cal/(molK)  kcal/mol
		=========================================

		   1    -27.375709   3.890       -0.679
		   2    -27.375709   3.918       -0.681
		   3    -27.375709   3.918       -0.681

		Global minimum found!
		Writing structure to v.globalminimum.xyz

		# Final ensemble info #
		Conformer     Energy     Degen.   % total   % cumul.  
		              (kcal/mol)
		------------------------------------------------------
		        0     0.000	     1      31.69      31.69
		        1     0.046	     1      29.34      61.03
		        2     0.608	     1      11.35      72.38
		        3     0.946	     1       6.42      78.80
		        4     1.187	     1       4.27      83.07
		        5     1.220	     1       4.04      87.11
		        6     1.431	     1       2.83      89.95
		        7     1.523	     1       2.42      92.37
		        8     1.542	     1       2.35      94.72
		        9     2.075	     1       0.95      95.67
		       10     2.142	     1       0.85      96.53
		       11     2.225	     1       0.74      97.27
		       12     2.358	     1       0.59      97.86
		       13     2.471	     1       0.49      98.35
		       14     2.549	     1       0.43      98.78
		       15     2.765	     1       0.30      99.08
		       16     2.936	     1       0.22      99.30
		       17     3.141	     1       0.16      99.46
		       18     3.154	     1       0.15      99.61
		       19     3.337	     1       0.11      99.72
		       20     3.499	     1       0.09      99.81
		       21     3.775	     1       0.05      99.87
		       22     3.845	     1       0.05      99.91
		       23     4.012	     1       0.04      99.95
		       24     4.064	     1       0.03      99.98
		       25     4.524	     1       0.02     100.00
		       26     5.808	     1       0.00     100.00

		Conformers below 3 kcal/mol: 17
		Lowest energy conformer    : -27.375709 Eh
		Sconf at 298.15 K          :  3.92 cal/(molK)
		Gconf at 298.15 K          : -0.68 kcal/mol

		Writing final ensemble to v.finalensemble.xyz

--------------------------------
SUGGESTED CITATIONS FOR THIS RUN
--------------------------------

Below you find a list of papers that are relevant to this ORCA run
We neither can nor want to force you to cite these papers, but we appreciate if you do
You receive ORCA, which is the product of decades of hard work by many enthusiastic individuals, for free
The only thing we kindly ask in return is that you cite our papers,
We deeply appreciate it, if you show your appreciation for ORCA by not just citing the generic ORCA reference.

Please note that relegating all ORCA citations to the supporting information does *not* help us.
SI sections are not indexed - citations you put there will not count into any citation statistics
But we need these citations in order to attract the funding resources that allow us to do what we are doing

Therefore, if you are a happy ORCA user, please consider citing a few of the papers listed below in the main body of your paper

In addition to the list printed below, the program has created the file v.bibtex that contains the list in bibtex format
You can import this file easily into all common literature databanks and citation aid programs


List of essential papers. We consider these as the minimum necessary citations

  1. Bannwarth, C.; Ehlert, S.; Grimme, S.
     GFN2-xTB—An Accurate and Broadly Parametrized Self-Consistent Tight-Binding Quantum Chemical Method with Multipole Electrostatics and Density-Dependent Dispersion Contributions
     J. Chem. Theory Comput. 2019 15(3), 1652-1671
     doi.org/10.1021/acs.jctc.8b01176
  2. Neese, F.
     Software update: the ORCA program system, version 6.0
     WIRES Comput. Molec. Sci. 2025 15(1), e70019
     doi.org/10.1002/wcms.7019
  3. de Souza, B.
     GOAT: A Global Optimization Algorithm for Molecules and Atomic Clusters
     Angewandte Chemie 2025 64(18), e202500393
     doi.org/10.1002/anie.202500393

List of papers to cite with high priority. The work reported in these papers was absolutely
necessary for this run to complete.
Our perspective: the developers of density functionals and basis sets usually get cited in chemistry papers
Good! But without the algorithms to do something with them, the functionals or basis sets would not do anything.
Hence, in our opinion, the algorithm design and method developments papers are equally worthy of getting cited

  1. Bannwarth, C.; Caldeweyher, E.; Ehlert, S.; Hansen, A.; Pracht, P.; Seibert, J.; Spicher, S.; Grimme, S.
     Extended tight-binding quantum chemistry methods
     WIRES Comput. Molec. Sci. 2020 11(2), e1493
     doi.org/10.1002/wcms.1493

List of suggested additional citations. These are papers that are important in the 'surrounding' of 
of this run, or papers that preceded the highly important papers. If you like your results we are grateful for a citation.

  1. Neese, F.
     The ORCA program system
     WIRES Comput. Molec. Sci. 2012 2(1), 73-78
     doi.org/10.1002/wcms.81
  2. Neese, F.
     Software update: the ORCA program system, version 4.0
     WIRES Comput. Molec. Sci. 2018 8(1), 1-6
     doi.org/10.1002/wcms.1327
  3. Neese, F.; Wennmohs, F.; Becker, U.; Riplinger, C.
     The ORCA quantum chemistry program package
     J. Chem. Phys. 2020 152(22), 224108
     doi.org/10.1063/5.0004608
  4. Neese, F.
     Software update: The ORCA program system—Version 5.0
     WIRES Comput. Molec. Sci. 2022 12(1), e1606
     doi.org/10.1002/wcms.1606

List of optional additional citations

  1. Neese, F.
     Approximate second-order SCF convergence for spin unrestricted wavefunctions
     Chem. Phys. Lett. 2000 325(1-3), 93-98
     doi.org/10.1016/s0009-2614(00)00662-x

Timings for individual modules:

Sum of individual times          ...      672.221 sec (=  11.204 min)
Geometry relaxation              ...        0.066 sec (=   0.001 min)   0.0 %
GOAT                             ...      671.572 sec (=  11.193 min)  99.9 %
XTB module                       ...        0.582 sec (=   0.010 min)   0.1 %
                             ****ORCA TERMINATED NORMALLY****
TOTAL RUN TIME: 0 days 0 hours 11 minutes 12 seconds 359 msec
