
                                 *****************
                                 * O   R   C   A *
                                 *****************

                                            #,                                       
                                            ###                                      
                                            ####                                     
                                            #####                                    
                                            ######                                   
                                           ########,                                 
                                     ,,################,,,,,                         
                               ,,#################################,,                 
                          ,,##########################################,,             
                       ,#########################################, ''#####,          
                    ,#############################################,,   '####,        
                  ,##################################################,,,,####,       
                ,###########''''           ''''###############################       
              ,#####''   ,,,,##########,,,,          '''####'''          '####       
            ,##' ,,,,###########################,,,                        '##       
           ' ,,###''''                  '''############,,,                           
         ,,##''                                '''############,,,,        ,,,,,,###''
      ,#''                                            '''#######################'''  
     '                                                          ''''####''''         
             ,#######,   #######,   ,#######,      ##                                
            ,#'     '#,  ##    ##  ,#'     '#,    #''#        ,####,    ,#,          
            ##       ##  ##   ,#'  ##            #'  '#       #'       ,# #          
            ##       ##  #######   ##           ,######,      #####,      #          
            '#,     ,#'  ##    ##  '#,     ,#' ,#      #,     #,   #      #          
             '#######'   ##     ##  '#######'  #'      '#     '####' #    #          



                #########################################################
                #                        -***-                          #
                #          Department of theory and spectroscopy        #
                #                                                       #
                #                      Frank Neese                      #
                #                                                       #
                #     Directorship, Architecture, Infrastructure        #
                #                    SHARK, DRIVERS                     #
                #        Core code/Algorithms in most modules           #
                #                                                       #
                #        Max Planck Institute fuer Kohlenforschung      #
                #                Kaiser Wilhelm Platz 1                 #
                #                 D-45470 Muelheim/Ruhr                 #
                #                      Germany                          #
                #                                                       #
                #                  All rights reserved                  #
                #                        -***-                          #
                #########################################################


                         Program Version 6.1.0  -  RELEASE   -
                                (GIT: $679e74b$)
                          ($2025-06-10 18:02:51 +0200$)


 With contributions from (in alphabetic order):
[Max-Planck-Institut fuer Kohlenforschung]                               
  Daniel Aravena         : Magnetic Suceptibility                        
  Michael Atanasov       : Ab Initio Ligand Field Theory (pilot matlab implementation)
  Alexander A. Auer      : GIAO ZORA, VPT2 properties, NMR spectrum      
  Ute Becker             : All parallelization in ORCA, NUMFREQ, NUMCALC 
  Giovanni Bistoni       : ED, misc. LED, open-shell LED, HFLD           
  Dmytro Bykov           : pre 5.0 version of the SCF Hessian            
  Marcos Casanova-Páez   : Triplet and SCS-CIS(D). UHF-(DLPNO)-IP/EA/STEOM-CCSD. UHF-CVS-IP/STEOM-CCSD   
  Vijay G. Chilkuri      : MRCI spin determinant printing, contributions to CSF-ICE 
  Pauline Colinet        : FMM embedding                                 
  Dipayan Datta          : RHF DLPNO-CCSD density                        
  Achintya Kumar Dutta   : EOM-CC, STEOM-CC                              
  Nicolas Foglia         : Exact transition moments, OPA infrastructure, MCD improvements    
  Dmitry Ganyushin       : Spin-Orbit,Spin-Spin,Magnetic field MRCI      
  Miquel Garcia-Rates    : C-PCM and meta-GGA Hessian, CCSD/C-PCM, Gaussian charge scheme 
  Tiago L. C. Gouveia    : GS-ROHF, GS-ROCIS                             
  Yang Guo               : DLPNO-NEVPT2, F12-NEVPT2, CIM, IAO-localization        
  Andreas Hansen         : Spin unrestricted coupled pair/coupled cluster methods 
  Ingolf Harden          : AUTO-CI MPn and infrastructure                
  Benjamin Helmich-Paris : MC-RPA, TRAH-(SCF,CASSCF), AVAS, COSX integrals, SCF dyn. polar., MC-PDFT, srDFT 
  Lee Huntington         : MR-EOM, pCC                                   
  Robert Izsak           : Overlap fitted RIJCOSX, COSX-SCS-MP3, EOM     
  Riya Kayal             : Wick's Theorem for AUTO-CI, AUTO-CI UHF-CCSDT 
  Emily Kempfer          : AUTO-CI RHF CISDT and CCSDT, approximate NEVPT4
  Christian Kollmar      : KDIIS, OOCD, Brueckner-CCSD(T), CCSD density, CASPT2, CASPT2-K, improved NEVPT2 
  Axel Koslowski         : Symmetry handling                             
  Simone Kossmann        : meta-GGA functionals, TD-DFT gradient, OOMP2, (MP2 Hessian; deprecated post 5.0) 
  Lucas Lang             : DCDCAS, Hyperfine gauge corrections, ICE-SOC+SSC
  Marvin Lechner         : AUTO-CI (C++ implementation), FIC-MRCC        
  Spencer Leger          : CASSCF response                               
  Dagmar Lenk            : GEPOL surface, SMD, ORCA-2-JSON               
  Dimitrios Liakos       : Extrapolation schemes; Compound Job, Property file
  Dimitrios Manganas     : Further ROCIS development; embedding schemes. LFT, Crystal Embedding 
  Dimitrios Pantazis     : SARC Basis sets                               
  Anastasios Papadopoulos: AUTO-CI, single reference methods and gradients 
  Taras Petrenko         : pre 6.0 DFT Hessian and TD-DFT gradient,  ECA, NRVS 
  Petra Pikulova         : Analytic Raman intensities                    
  Peter Pinski           : DLPNO-MP2, DLPNO-MP2 Gradient                 
  Shashank Vittal Rao    : ES-AILFT, MagRelax                            
  Christoph Reimann      : Effective Core Potentials                     
  Marius Retegan         : Local ZFS, SOC                                
  Christoph Riplinger    : Optimizer, TS searches, QM/MM, DLPNO-CCSD(T), (RO)-DLPNO pert. Triples 
  Michael Roemelt        : Original ROCIS implementation, recursive CI coupling coefficients
  Masaaki Saitow         : Open-shell DLPNO-CCSD energy and density      
  Barbara Sandhoefer     : DKH picture change effects                    
  Yorick L. A. Schmerwitz: GMF and freeze-and-release deltaSCF, NEB S-IDPP initial path                    
  Kantharuban Sivalingam : CASSCF convergence/infrastructure, NEVPT2, NEVPT3, NEVPT4(SD), FIC-MRCI and CEPA variants
  Bernardo de Souza      : ESD, SOC TD-DFT                               
  Georgi L. Stoychev     : AutoAux, RI-MP2 NMR, DLPNO-MP2 response, X2C  
  Van Anh Tran           : RI-MP2 g-tensors                              
  Willem Van den Heuvel  : Paramagnetic NMR                              
  Zikuan Wang            : NOTCH, Electric field optimization            
  Frank Wennmohs         : Technical directorship and infrastructure     
  Hang Xu                : AUTO-CI-Response properties                   
                                                                         
[FACCTs GmbH]                                                            
  Markus Bursch, Nicolas Foglia, Miquel Garcia-Rates, Ingolf Harden, Hagen Neugebauer, Anastasios Papadopoulos, 
  Christoph Riplinger, Bernardo de Souza, Georgi L. Stoychev                                                    
                                                                 
  APM, various basis sets, CI-OPT, improved COSX, DLPNO-Multilevel,           
  DOCKER, DRACO, updates on ESD, Fragmentator, GOAT, IRC, LR-CPCM, L-BFGS, MBIS, meta-GGA TD-DFT gradient, ML-optimized integration grids, 
  MM, NACMEs, nearIR, NEB, NEB-TS, NL-DFT gradient (VV10), 2- and 3-layer-ONIOM, interface openCOSMO-RS, QMMM,   
  Crystal-QMMM, RESP, rigid body optimization, SF, symmetry and pop. for TD-DFT, various functionals, SOLVATOR                                   
                                                                         
[Other institutions]                                                     
  V. Asgeirsson          : NEB                                           
  Christoph Bannwarth    : sTDA-DFT, sTD-DFT, PBEh-3c, B97-3c, D3        
  Giovanni Bistoni       : ETS/NOCV, ADLD/ADEX, COVALED                  
  Martin Brehm           : Molecular dynamics                            
  Ronald Cardenas        : ETS/NOCV                                      
  Martina Colucci        : COVALED                                       
  Sebastian Ehlert       : rSCAN, r2SCAN, r2SCAN-3c, D4, dhf basis sets  
  Marvin Friede          : D4 for Fr, Ra, Ac-Lr                          
  Lars Goerigk           : TD-DFT with DH, B97 family of functionals     
  Stefan Grimme          : VdW corrections, initial TS optimization, DFT functionals, gCP, sTDA/sTD-DF 
  Waldemar Hujo          : DFT-NL                                        
  H. Jonsson             : NEB                                           
  Holger Kruse           : gCP                                           
  Marcel Mueller         : wB97X-3c, vDZP basis set                      
  Hagen Neugebauer       : wr2SCAN, Native XTB                           
  Gianluca Regni         : ADLD/ADEX                                     
  Tobias Risthaus        : pre 6.0 range-separated hybrid DFT and stability analysis
  Lukas Wittmann         : regularized MP2, r2SCAN double-hybrids, wr2SCAN        
                                                                         
We gratefully acknowledge several colleagues who have allowed us to      
interface, adapt or use parts of their codes:                            
  Ed Valeev, F. Pavosevic, A. Kumar             : LibInt (2-el integral package), F12 methods 
  Garnet Chan, S. Sharma, J. Yang, R. Olivares  : DMRG                   
  Ulf Ekstrom                                   : XCFun DFT Library      
  Mihaly Kallay                                 : mrcc  (arbitrary order and MRCC methods)
  Frank Weinhold                                : gennbo (NPA and NBO analysis)           
  Simon Mueller                                 : openCOSMO-RS                            
  Christopher J. Cramer and Donald G. Truhlar   : smd solvation model                     
  S Lehtola, MJT Oliveira, MAL Marques          : LibXC Library                           
  Liviu Ungur et al                             : ANISO software                          


 Your calculation uses the libint2 library for the computation of 2-el integrals
 For citations please refer to: http://libint.valeyev.net

 Your ORCA version has been built with support for libXC version: 7.0.0
 For citations please refer to: https://libxc.gitlab.io

 This ORCA versions uses:
   CBLAS   interface :  Fast vector & matrix operations
   LAPACKE interface :  Fast linear algebra routines
   SCALAPACK package :  Parallel linear algebra routines
   Shared memory     :  Shared parallel matrices
   BLAS/LAPACK       :  OpenBLAS 0.3.29  USE64BITINT DYNAMIC_ARCH NO_AFFINITY Haswell SINGLE_THREADED
        Core in use  :  Haswell
   Copyright (c) 2011-2014, The OpenBLAS Project


  ***********************************
  * Starting time: Thu Aug 14 12:10:49 2025
  * Host name:     CHEMLAB02
  * Process ID:    1769437
  * Working dir.:  /home/vivek/mm-project/vivek/B97-D/k/1
  ***********************************



***************************************
The coordinates will be read from file: /home/vivek/mm-project/vivek/xtb-goat/k/K_CONF/1.xyz
***************************************


Your calculation utilizes empirical dispersion correction


Warning: RI is on but no J-basis has been assigned. Assigning Def2/J (nothing to worry about!)
================================================================================

----- Orbital basis set information -----
Your calculation utilizes the basis: 6-31G**
   H-He, Li-Ne : W. J. Hehre, R. Ditchfield and J.A. Pople, J. Chem. Phys. 56, 2257 (1972).
                 Note: He and Ne are unpublished basis sets taken from the Gaussian program.
                 Note: Li and B from J. D. Dill and J. A. Pople, J. Chem. Phys. 62, 2921 (1975).
   Na - Ar     : M. M. Francl, W. J. Pietro, W. J. Hehre, J. S. Binkley, M. S. Gordon, 
                 D. J. DeFrees and J. A. Pople, J. Chem. Phys. 77, 3654 (1982).
   K - Zn      : V. A. Rassolov, J. A. Pople, M. A. Ratner, and T. L. Windus, J. Chem. Phys. 109, 1223 (1998).

----- AuxJ basis set information -----
Your calculation utilizes the auxiliary basis: def2/J
   H-Rn: F. Weigend, Phys. Chem. Chem. Phys. 8, 1057 (2006).
   Fr-Lr: K. Eichkorn, F. Weigend, O. Treutler, R. Ahlrichs; Theor. Chem. Acc. 97, 119 (1997).

================================================================================
                                        WARNINGS
                       Please study these warnings very carefully!
================================================================================


INFO   : The exchange functional is Grimme's B97(-D)
         As described in S. Grimme, J. Comput. Chem. 27, 1787 (2006).
         Note that this functional defaults to a pure GGA. 

INFO   : The correlation functional is Grimme's B97(-D)
         As described in S. Grimme, J. Comput. Chem. 27, 1787 (2006).

================================================================================
                                       INPUT FILE
================================================================================
NAME = 1.inp
|  1> ! B97-D 6-31G** 
|  2> 
|  3> * xyzfile 0 1 /home/vivek/mm-project/vivek/xtb-goat/k/K_CONF/1.xyz
|  4> 
|  5>                          ****END OF INPUT****
================================================================================

                       ****************************
                       * Single Point Calculation *
                       ****************************

---------------------------------
CARTESIAN COORDINATES (ANGSTROEM)
---------------------------------
  C    -14.171089    7.107868    0.822124
  C    -12.698078    7.088619    1.263688
  H    -14.815388    5.471132    1.847557
  H    -14.438568    5.160011    0.284132
  N    -14.867972    5.838871    0.903049
  C    -11.827658    6.221414    0.357542
  H    -12.320687    8.113503    1.257598
  H    -12.638135    6.718378    2.290993
  C    -10.360744    6.262001    0.774861
  H    -12.159319    5.182619    0.391631
  H    -11.918609    6.569994   -0.673571
  C     -9.521336    5.282015   -0.062394
  H     -9.961373    7.269719    0.649585
  H    -10.272142    5.985492    1.828373
  C     -8.057516    5.455164    0.322121
  H     -6.610522    6.686843    0.144594
  N     -9.990518    3.926238    0.142814
  O     -7.536103    6.598493   -0.135162
  H    -14.719431    7.818699    1.447844
  H    -14.235235    7.452146   -0.213668
  H     -9.802151    3.649321    1.102215
  O     -7.427423    4.664382    0.973815
  H     -9.630639    5.537169   -1.122143
  H     -9.481616    3.283290   -0.454531

----------------------------
CARTESIAN COORDINATES (A.U.)
----------------------------
  NO LB      ZA    FRAG     MASS         X           Y           Z
   0 C     6.0000    0    12.011  -26.779476   13.431924    1.553588
   1 C     6.0000    0    12.011  -23.995890   13.395548    2.388024
   2 H     1.0000    0     1.008  -27.997026   10.338941    3.491377
   3 H     1.0000    0     1.008  -27.284940    9.751008    0.536932
   4 N     7.0000    0    14.007  -28.096396   11.033867    1.706516
   5 C     6.0000    0    12.011  -22.351035   11.756769    0.675657
   6 H     1.0000    0     1.008  -23.282724   15.332298    2.376516
   7 H     1.0000    0     1.008  -23.882615   12.695894    4.329349
   8 C     6.0000    0    12.011  -19.578969   11.833466    1.464274
   9 H     1.0000    0     1.008  -22.977783    9.793731    0.740076
  10 H     1.0000    0     1.008  -22.522907   12.415489   -1.272865
  11 C     6.0000    0    12.011  -17.992718    9.981561   -0.117907
  12 H     1.0000    0     1.008  -18.824267   13.737778    1.227538
  13 H     1.0000    0     1.008  -19.411536   11.310941    3.455124
  14 C     6.0000    0    12.011  -15.226499   10.308766    0.608721
  15 H     1.0000    0     1.008  -12.492077   12.636302    0.273242
  16 N     7.0000    0    14.007  -18.879343    7.419514    0.269880
  17 O     8.0000    0    15.999  -14.241170   12.469345   -0.255419
  18 H     1.0000    0     1.008  -27.815693   14.775200    2.736029
  19 H     1.0000    0     1.008  -26.900696   14.082514   -0.403775
  20 H     1.0000    0     1.008  -18.523381    6.896217    2.082885
  21 O     8.0000    0    15.999  -14.035795    8.814404    1.840245
  22 H     1.0000    0     1.008  -18.199270   10.463733   -2.120544
  23 H     1.0000    0     1.008  -17.917658    6.204518   -0.858938

--------------------------------
INTERNAL COORDINATES (ANGSTROEM)
--------------------------------
 C      0   0   0     0.000000000000     0.00000000     0.00000000
 C      1   0   0     1.537891391036     0.00000000     0.00000000
 H      1   2   0     2.036060068251    98.53575371     0.00000000
 H      3   1   2     1.638012959157    66.37093846   262.97411034
 N      4   3   1     1.014049612019    36.18463696   320.98651827
 C      2   1   3     1.526687256688   112.50565731    87.86124769
 H      2   1   3     1.092175977911   108.51881850   209.09940964
 H      2   1   3     1.093629900076   109.05319453   326.15458205
 C      6   2   1     1.525660163103   111.76002275   177.55735804
 H      6   2   1     1.090988652876   110.42543628   297.80686262
 H      6   2   1     1.092233932839   109.36377413    56.44763961
 C      9   6   2     1.538171953931   111.03065598   174.62308623
 H      9   6   2     1.091186476539   110.18598084   295.53040542
 H      9   6   2     1.092792211465   109.56804234    54.64167628
 C     12   9   6     1.523351847821   108.33559213   175.35747729
 H     15  12   9     1.908491672938   141.11728041   288.76325469
 N     12   9   6     1.449266414209   110.01523224   298.63259752
 O     16  15  12     0.970962392416    41.00326696   358.04773559
 H      1   2   3     1.094297553296   108.89917220    97.59796876
 H      1   2   3     1.093392475669   109.39818303   215.33484649
 H     17  12   9     1.016176588653   109.18397305   293.34095233
 O     15  12   9     1.202937706803   124.42674916   107.23060458
 H     12   9   6     1.095500135383   108.88777260    57.80649908
 H     17  12   9     1.014487553741   110.31080432   176.18372234

---------------------------
INTERNAL COORDINATES (A.U.)
---------------------------
 C      0   0   0     0.000000000000     0.00000000     0.00000000
 C      1   0   0     2.906193552773     0.00000000     0.00000000
 H      1   2   0     3.847595921208    98.53575371     0.00000000
 H      3   1   2     3.095395896621    66.37093846   262.97411034
 N      4   3   1     1.916276052924    36.18463696   320.98651827
 C      2   1   3     2.885020807289   112.50565731    87.86124769
 H      2   1   3     2.063913488299   108.51881850   209.09940964
 H      2   1   3     2.066661003012   109.05319453   326.15458205
 C      6   2   1     2.883079881698   111.76002275   177.55735804
 H      6   2   1     2.061669769151   110.42543628   297.80686262
 H      6   2   1     2.064023007241   109.36377413    56.44763961
 C      9   6   2     2.906723739808   111.03065598   174.62308623
 H      9   6   2     2.062043601697   110.18598084   295.53040542
 H      9   6   2     2.065078000951   109.56804234    54.64167628
 C     12   9   6     2.878717797985   108.33559213   175.35747729
 H     15  12   9     3.606526590722   141.11728041   288.76325469
 N     12   9   6     2.738716617945   110.01523224   298.63259752
 O     16  15  12     1.834853008003    41.00326696   358.04773559
 H      1   2   3     2.067922684750   108.89917220    97.59796876
 H      1   2   3     2.066212335905   109.39818303   215.33484649
 H     17  12   9     1.920295456257   109.18397305   293.34095233
 O     15  12   9     2.273222822026   124.42674916   107.23060458
 H     12   9   6     2.070195235548   108.88777260    57.80649908
 H     17  12   9     1.917103642841   110.31080432   176.18372234

---------------------
BASIS SET INFORMATION
---------------------
There are 4 groups of distinct atoms

 Group   1 Type C   : 10s4p1d contracted to 3s2p1d pattern {631/31/1}
 Group   2 Type H   : 4s1p contracted to 2s1p pattern {31/1}
 Group   3 Type N   : 10s4p1d contracted to 3s2p1d pattern {631/31/1}
 Group   4 Type O   : 10s4p1d contracted to 3s2p1d pattern {631/31/1}

Atom   0C    basis set group =>   1
Atom   1C    basis set group =>   1
Atom   2H    basis set group =>   2
Atom   3H    basis set group =>   2
Atom   4N    basis set group =>   3
Atom   5C    basis set group =>   1
Atom   6H    basis set group =>   2
Atom   7H    basis set group =>   2
Atom   8C    basis set group =>   1
Atom   9H    basis set group =>   2
Atom  10H    basis set group =>   2
Atom  11C    basis set group =>   1
Atom  12H    basis set group =>   2
Atom  13H    basis set group =>   2
Atom  14C    basis set group =>   1
Atom  15H    basis set group =>   2
Atom  16N    basis set group =>   3
Atom  17O    basis set group =>   4
Atom  18H    basis set group =>   2
Atom  19H    basis set group =>   2
Atom  20H    basis set group =>   2
Atom  21O    basis set group =>   4
Atom  22H    basis set group =>   2
Atom  23H    basis set group =>   2
---------------------------------
AUXILIARY/J BASIS SET INFORMATION
---------------------------------
There are 4 groups of distinct atoms

 Group   1 Type C   : 12s5p4d2f1g contracted to 6s4p3d1f1g pattern {711111/2111/211/2/1}
 Group   2 Type H   : 5s2p1d contracted to 3s1p1d pattern {311/2/1}
 Group   3 Type N   : 12s5p4d2f1g contracted to 6s4p3d1f1g pattern {711111/2111/211/2/1}
 Group   4 Type O   : 12s5p4d2f1g contracted to 6s4p3d1f1g pattern {711111/2111/211/2/1}

Atom   0C    basis set group =>   1
Atom   1C    basis set group =>   1
Atom   2H    basis set group =>   2
Atom   3H    basis set group =>   2
Atom   4N    basis set group =>   3
Atom   5C    basis set group =>   1
Atom   6H    basis set group =>   2
Atom   7H    basis set group =>   2
Atom   8C    basis set group =>   1
Atom   9H    basis set group =>   2
Atom  10H    basis set group =>   2
Atom  11C    basis set group =>   1
Atom  12H    basis set group =>   2
Atom  13H    basis set group =>   2
Atom  14C    basis set group =>   1
Atom  15H    basis set group =>   2
Atom  16N    basis set group =>   3
Atom  17O    basis set group =>   4
Atom  18H    basis set group =>   2
Atom  19H    basis set group =>   2
Atom  20H    basis set group =>   2
Atom  21O    basis set group =>   4
Atom  22H    basis set group =>   2
Atom  23H    basis set group =>   2
------------------------------------------------------------------------------
                             ORCA STARTUP CALCULATIONS
                           -- RI-GTO INTEGRALS CHOSEN --
------------------------------------------------------------------------------
------------------------------------------------------------------------------
                   ___                                                        
                  /   \      - P O W E R E D   B Y -                         
                 /     \                                                     
                 |  |  |   _    _      __       _____    __    __             
                 |  |  |  | |  | |    /  \     |  _  \  |  |  /  |          
                  \  \/   | |  | |   /    \    | | | |  |  | /  /          
                 / \  \   | |__| |  /  /\  \   | |_| |  |  |/  /          
                |  |  |   |  __  | /  /__\  \  |    /   |      \           
                |  |  |   | |  | | |   __   |  |    \   |  |\   \          
                \     /   | |  | | |  |  |  |  | |\  \  |  | \   \       
                 \___/    |_|  |_| |__|  |__|  |_| \__\ |__|  \__/        
                                                                              
                      - O R C A' S   B I G   F R I E N D -                    
                                      &                                       
                       - I N T E G R A L  F E E D E R -                       
                                                                              
 v1 FN, 2020, v2 2021, v3 2022-2024                                           
------------------------------------------------------------------------------


----------------------
SHARK INTEGRAL PACKAGE
----------------------

Number of atoms                             ...     24
Number of basis functions                   ...    210
Number of shells                            ...    102
Maximum angular momentum                    ...      2
Integral batch strategy                     ... SHARK/LIBINT Hybrid
RI-J (if used) integral strategy            ... SPLIT-RIJ (Revised 2003 algorithm where possible)
Printlevel                                  ...      1
Contraction scheme used                     ... SEGMENTED contraction
Prescreening option                         ... SCHWARTZ
   Thresh                                   ... 1.000e-10
   Tcut                                     ... 1.000e-11
   Tpresel                                  ... 1.000e-11 
Coulomb Range Separation                    ... NOT USED
Exchange Range Separation                   ... NOT USED
Multipole approximations                    ... NOT USED
Finite Nucleus Model                        ... NOT USED
CABS basis                                  ... NOT available
Auxiliary Coulomb fitting basis             ... AVAILABLE
   # of basis functions in Aux-J            ...    644
   # of shells in Aux-J                     ...    220
   Maximum angular momentum in Aux-J        ...      4
Auxiliary J/K fitting basis                 ... NOT available
Auxiliary Correlation fitting basis         ... NOT available
Auxiliary 'external' fitting basis          ... NOT available

Checking pre-screening integrals            ... done (  0.0 sec) Dimension = 102
   => SHARK Basis and OBASIS are compatible. Storing Pre-screening
Shell pair information
Shell pair cut-off parameter TPreSel        ...   1.0e-11
Total number of shell pairs                 ...      5253
Shell pairs after pre-screening             ...      4273
Total number of primitive shell pairs       ...     24562
Primitive shell pairs kept                  ...     13007
          la=0 lb=0:   1425 shell pairs
          la=1 lb=0:   1609 shell pairs
          la=1 lb=1:    479 shell pairs
          la=2 lb=0:    457 shell pairs
          la=2 lb=1:    262 shell pairs
          la=2 lb=2:     41 shell pairs

Checking whether 4 symmetric matrices of dimension 210 fit in memory
:Max Core in MB      =   4096.00
 MB in use           =      9.08
 MB left             =   4086.92
 MB needed           =      0.68
 Data fit in memory  = YES
Calculating RI/J V-Matrix + Cholesky decomp.... done (  0.0 sec)
Calculating Nuclear repulsion               ... done (  0.0 sec) ENN=    550.416845226379 Eh

Diagonalization of the overlap matrix:
Smallest eigenvalue                        ... 2.515e-03
Time for diagonalization                   ...    0.002 sec
Threshold for overlap eigenvalues          ... 1.000e-07
Number of eigenvalues below threshold      ... 0
Time for construction of square roots      ...    0.001 sec
Total time needed                          ...    0.003 sec

-------------------
DFT GRID GENERATION
-------------------

General Integration Accuracy     IntAcc      ... 4.388
Radial Grid Type                 RadialGrid  ... OptM3 with GC (2021)
Angular Grid (max. ang.)         AngularGrid ... 4 (Lebedev-302)
Angular grid pruning method      GridPruning ... 4 (adaptive)
Weight generation scheme         WeightScheme... mBecke (2022)
Basis function cutoff            BFCut       ... 1.0000e-10
Integration weight cutoff        WCut        ... 1.0000e-14
Partially contracted basis set               ... off
Rotationally invariant grid construction     ... off
Angular grids for H and He will be reduced by one unit

Total number of grid points                  ...   104876
Total number of batches                      ...     1652
Average number of points per batch           ...       63
Average number of grid points per atom       ...     4370
Grids setup in   0.4 sec
Initializing property integral containers    ... done (  0.0 sec)

SHARK setup successfully completed in   0.5 seconds

Maximum memory used throughout the entire STARTUP-calculation: 43.9 MB
-------------------------------------------------------------------------------
                                 ORCA GUESS
                   Start orbitals & Density for SCF / CASSCF
-------------------------------------------------------------------------------

------------
SCF SETTINGS
------------
Hamiltonian:
 Density Functional     Method          .... DFT(GTOs)
 Exchange Functional    Exchange        .... B97(D)
 Correlation Functional Correlation     .... B97(D)
 Gradients option       PostSCFGGA      .... off
 RI-approximation to the Coulomb term is turned on
   Number of AuxJ basis functions       .... 644


General Settings:
 Integral files         IntName         .... 1
 Hartree-Fock type      HFTyp           .... RHF
 Total Charge           Charge          ....    0
 Multiplicity           Mult            ....    1
 Number of Electrons    NEL             ....   80
 Basis Dimension        Dim             ....  210
 Nuclear Repulsion      ENuc            ....    550.4168452264 Eh

Convergence Acceleration:
 AO-DIIS                CNVDIIS         .... on
   Start iteration      DIISMaxIt       ....    12
   Startup error        DIISStart       ....  0.200000
   # of expansion vecs  DIISMaxEq       ....     5
   Bias factor          DIISBfac        ....   1.050
   Max. coefficient     DIISMaxC        ....  10.000
 MO-DIIS                CNVKDIIS        .... off
 Trust-Rad. Augm. Hess. CNVTRAH         .... auto
   Auto Start mean grad. ratio tolernc. ....  1.125000
   Auto Start start iteration           ....    50
   Auto Start num. interpolation iter.  ....    10
   Max. Number of Micro iterations      ....    24
   Max. Number of Macro iterations      .... Maxiter - #DIIS iter
   Number of Davidson start vectors     ....     2
   Converg. threshold    (grad. norm)   ....   5.000e-05
   Grad. Scal. Fac. for Micro threshold ....   0.100
   Minimum threshold for Micro iter.    ....   1.000e-02
   NR start threshold (gradient norm)   ....   1.000e-04
   Initial trust radius                 ....   0.400
   Minimum AH scaling param. (alpha)    ....   1.000
   Maximum AH scaling param. (alpha)    .... 1000.000
   Quad. conv. algorithm                .... NR
   White noise on init. David. guess    .... on
   Maximum white noise                  ....   0.010
   Pseudo random numbers                .... off
   Inactive MOs                         .... canonical
   Orbital update algorithm             .... Taylor
   Preconditioner                       .... Diag
   Full preconditioner red. dimension   ....   250
 SOSCF                 CNVSOSCF           .... on
   Start iteration     SOSCFMaxIt         ....   150
   Startup grad/error  SOSCFStart         ....  0.003300
   Hessian update      SOSCFHessUp        .... L-BFGS
   Autom. constraints  SOSCFAutoConstrain .... off
 Level Shifting         CNVShift        .... on
   Level shift para.    LevelShift      ....    0.2500
   Turn off err/grad.   ShiftErr        ....    0.0010
 Zerner damping         CNVZerner       .... off
 Static damping         CNVDamp         .... on
   Fraction old density DampFac         ....    0.7000
   Max. Damping (<1)    DampMax         ....    0.9800
   Min. Damping (>=0)   DampMin         ....    0.0000
   Turn off err/grad.   DampErr         ....    0.1000

SCF Procedure:
 Maximum # iterations   MaxIter         ....   125
 SCF integral mode      SCFMode         .... Direct
   Integral package                     .... SHARK and LIBINT hybrid scheme
 Reset frequency        DirectResetFreq ....    20
 Integral Threshold     Thresh          ....  1.000e-10 Eh
 Primitive CutOff       TCut            ....  1.000e-11 Eh

Convergence Tolerance:
 Convergence Check Mode ConvCheckMode   .... Total+1el-Energy
 Convergence forced     ConvForced      .... 0
 Energy Change          TolE            ....  1.000e-06 Eh
 1-El. energy change                    ....  1.000e-03 Eh
 Orbital Gradient       TolG            ....  5.000e-05
 Orbital Rotation angle TolX            ....  5.000e-05
 DIIS Error             TolErr          ....  1.000e-06

------------------------------
INITIAL GUESS: MODEL POTENTIAL
------------------------------
Loading Hartree-Fock densities                     ... done
Calculating cut-offs                               ... done
Initializing the effective Hamiltonian             ... done
Setting up the integral package (SHARK)            ... done
Starting the Coulomb interaction                   ... done (   0.1 sec)
Making the grid                                    ... done (   0.1 sec)
Mapping shells                                     ... done
Starting the XC term evaluation                    ... done (   0.1 sec)
  promolecular density results
     # of electrons  =     79.995005183
     EX              =    -63.613117654
     EC              =     -3.477555012
     EX+EC           =    -67.090672666
Transforming the Hamiltonian                       ... done (   0.0 sec)
Diagonalizing the Hamiltonian                      ... done (   0.0 sec)
Back transforming the eigenvectors                 ... done (   0.0 sec)
Now organizing SCF variables                       ... done
                      ------------------
                      INITIAL GUESS DONE (   0.3 sec)
                      ------------------
             **** ENERGY FILE WAS UPDATED (1.en.tmp) ****
Finished Guess after   0.3 sec
Maximum memory used throughout the entire GUESS-calculation: 14.4 MB

-------------------------------------------------------------------------------------------
                                      ORCA LEAN-SCF
                              memory conserving SCF solver
-------------------------------------------------------------------------------------------

----------------------------------------D-I-I-S--------------------------------------------
Iteration    Energy (Eh)           Delta-E    RMSDP     MaxDP     DIISErr   Damp  Time(sec)
-------------------------------------------------------------------------------------------
               ***  Starting incremental Fock matrix formation  ***
    1    -496.2771649164183145     0.00e+00  3.53e-03  1.01e-01  2.54e-01  0.700   0.6
    2    -496.4803561576734410    -2.03e-01  2.32e-03  5.28e-02  1.03e-01  0.700   0.6
                               ***Turning on AO-DIIS***
    3    -496.5435507026079449    -6.32e-02  8.96e-04  1.83e-02  3.27e-02  0.700   0.5
    4    -496.5842228961232649    -4.07e-02  1.19e-03  2.09e-02  1.10e-02  0.000   0.5
    5    -496.6785140381832662    -9.43e-02  4.03e-04  9.70e-03  1.14e-02  0.000   0.5
    6    -496.6794880754337100    -9.74e-04  1.54e-04  3.48e-03  3.58e-03  0.000   0.5
                              *** Initializing SOSCF ***
---------------------------------------S-O-S-C-F--------------------------------------
Iteration    Energy (Eh)           Delta-E    RMSDP     MaxDP     MaxGrad    Time(sec)
--------------------------------------------------------------------------------------
    7    -496.6795730271767297    -8.50e-05  5.73e-05  1.33e-03  1.74e-03     0.5
               *** Restarting incremental Fock matrix formation ***
    8    -496.6795845180804463    -1.15e-05  3.89e-05  7.18e-04  1.39e-04     0.6
    9    -496.6795847455184685    -2.27e-07  1.69e-05  5.02e-04  2.36e-04     0.5
                 **** Energy Check signals convergence ****

               *****************************************************
               *                     SUCCESS                       *
               *           SCF CONVERGED AFTER   9 CYCLES          *
               *****************************************************

             **** ENERGY FILE WAS UPDATED (1.en.tmp) ****

----------------
TOTAL SCF ENERGY
----------------

Total Energy       :       -496.67958546584509 Eh          -13515.33863 eV

Components:
Nuclear Repulsion  :        550.41684522637934 Eh           14977.60381 eV
Electronic Energy  :      -1047.09643069222420 Eh          -28492.94243 eV
One Electron Energy:      -1767.40390716151364 Eh          -48093.50534 eV
Two Electron Energy:        720.30747646928933 Eh           19600.56291 eV

Virial components:
Potential Energy   :       -990.77958890681305 Eh          -26960.48326 eV
Kinetic Energy     :        494.10000344096795 Eh           13445.14463 eV
Virial Ratio       :          2.00522076908908

DFT components:
N(Alpha)           :       39.999964778616 electrons
N(Beta)            :       39.999964778616 electrons
N(Total)           :       79.999929557232 electrons
E(X)               :      -65.198158804750 Eh       
E(C)               :       -3.469464819689 Eh       
E(XC)              :      -68.667623624439 Eh       

---------------
SCF CONVERGENCE
---------------

  Last Energy change         ...    2.2744e-07  Tolerance :   1.0000e-06
  Last MAX-Density change    ...    5.0247e-04  Tolerance :   1.0000e-05
  Last RMS-Density change    ...    1.6939e-05  Tolerance :   1.0000e-06
  Last DIIS Error            ...    1.7418e-03  Tolerance :   1.0000e-06
  Last Orbital Gradient      ...    2.3574e-04  Tolerance :   5.0000e-05
  Last Orbital Rotation      ...    4.4588e-04  Tolerance :   5.0000e-05


----------------
ORBITAL ENERGIES
----------------

  NO   OCC          E(Eh)            E(eV) 
   0   2.0000     -18.815359      -511.9919 
   1   2.0000     -18.753469      -510.3078 
   2   2.0000     -13.988818      -380.6551 
   3   2.0000     -13.974964      -380.2781 
   4   2.0000     -10.027427      -272.8602 
   5   2.0000      -9.948027      -270.6996 
   6   2.0000      -9.919263      -269.9169 
   7   2.0000      -9.909538      -269.6522 
   8   2.0000      -9.896556      -269.2990 
   9   2.0000      -9.895054      -269.2581 
  10   2.0000      -1.021507       -27.7966 
  11   2.0000      -0.932457       -25.3734 
  12   2.0000      -0.818002       -22.2590 
  13   2.0000      -0.798172       -21.7194 
  14   2.0000      -0.717419       -19.5220 
  15   2.0000      -0.667571       -18.1655 
  16   2.0000      -0.619100       -16.8466 
  17   2.0000      -0.564748       -15.3676 
  18   2.0000      -0.529573       -14.4104 
  19   2.0000      -0.517112       -14.0713 
  20   2.0000      -0.458429       -12.4745 
  21   2.0000      -0.444785       -12.1032 
  22   2.0000      -0.432612       -11.7720 
  23   2.0000      -0.421623       -11.4729 
  24   2.0000      -0.411575       -11.1995 
  25   2.0000      -0.394946       -10.7470 
  26   2.0000      -0.381193       -10.3728 
  27   2.0000      -0.370128       -10.0717 
  28   2.0000      -0.359730        -9.7887 
  29   2.0000      -0.346298        -9.4233 
  30   2.0000      -0.331807        -9.0289 
  31   2.0000      -0.322864        -8.7856 
  32   2.0000      -0.303413        -8.2563 
  33   2.0000      -0.295025        -8.0281 
  34   2.0000      -0.285698        -7.7742 
  35   2.0000      -0.278775        -7.5858 
  36   2.0000      -0.272464        -7.4141 
  37   2.0000      -0.224304        -6.1036 
  38   2.0000      -0.197925        -5.3858 
  39   2.0000      -0.177201        -4.8219 
  40   0.0000      -0.016413        -0.4466 
  41   0.0000       0.050202         1.3661 
  42   0.0000       0.064251         1.7484 
  43   0.0000       0.072048         1.9605 
  44   0.0000       0.090888         2.4732 
  45   0.0000       0.098230         2.6730 
  46   0.0000       0.113317         3.0835 
  47   0.0000       0.120061         3.2670 
  48   0.0000       0.137385         3.7384 
  49   0.0000       0.143184         3.8962 
  50   0.0000       0.155017         4.2182 
*Only the first 10 virtual orbitals were printed.

                    ********************************
                    * MULLIKEN POPULATION ANALYSIS *
                    ********************************

-----------------------
MULLIKEN ATOMIC CHARGES
-----------------------
   0 C :   -0.085398
   1 C :   -0.192725
   2 H :    0.231216
   3 H :    0.238908
   4 N :   -0.572028
   5 C :   -0.179858
   6 H :    0.088466
   7 H :    0.087432
   8 C :   -0.191858
   9 H :    0.115767
  10 H :    0.092430
  11 C :   -0.048524
  12 H :    0.118694
  13 H :    0.100847
  14 C :    0.484378
  15 H :    0.317825
  16 N :   -0.551542
  17 O :   -0.454697
  18 H :    0.101478
  19 H :    0.103213
  20 H :    0.245792
  21 O :   -0.419096
  22 H :    0.124492
  23 H :    0.244789
Sum of atomic charges:   -0.0000000

--------------------------------
MULLIKEN REDUCED ORBITAL CHARGES
--------------------------------
  0 C s       :     3.196697  s :     3.196697
      pz      :     1.045511  p :     2.836139
      px      :     0.916494
      py      :     0.874134
      dz2     :     0.009906  d :     0.052562
      dxz     :     0.005994
      dyz     :     0.008912
      dx2y2   :     0.013108
      dxy     :     0.014641

  1 C s       :     3.225767  s :     3.225767
      pz      :     0.984627  p :     2.930691
      px      :     0.943518
      py      :     1.002547
      dz2     :     0.010398  d :     0.036266
      dxz     :     0.005759
      dyz     :     0.004418
      dx2y2   :     0.008966
      dxy     :     0.006726

  2 H s       :     0.744863  s :     0.744863
      pz      :     0.010600  p :     0.023921
      px      :     0.007887
      py      :     0.005434

  3 H s       :     0.736972  s :     0.736972
      pz      :     0.007791  p :     0.024120
      px      :     0.008723
      py      :     0.007606

  4 N s       :     3.585027  s :     3.585027
      pz      :     1.172699  p :     3.958255
      px      :     1.696574
      py      :     1.088982
      dz2     :     0.005387  d :     0.028745
      dxz     :     0.003552
      dyz     :     0.007982
      dx2y2   :     0.003028
      dxy     :     0.008796

  5 C s       :     3.219405  s :     3.219405
      pz      :     0.978309  p :     2.923581
      px      :     0.921295
      py      :     1.023976
      dz2     :     0.010592  d :     0.036872
      dxz     :     0.005644
      dyz     :     0.004247
      dx2y2   :     0.009630
      dxy     :     0.006759

  6 H s       :     0.899997  s :     0.899997
      pz      :     0.002524  p :     0.011537
      px      :     0.003048
      py      :     0.005965

  7 H s       :     0.901095  s :     0.901095
      pz      :     0.005971  p :     0.011473
      px      :     0.002554
      py      :     0.002948

  8 C s       :     3.232763  s :     3.232763
      pz      :     0.988163  p :     2.922517
      px      :     0.948044
      py      :     0.986309
      dz2     :     0.010799  d :     0.036578
      dxz     :     0.005536
      dyz     :     0.003888
      dx2y2   :     0.007803
      dxy     :     0.008551

  9 H s       :     0.872169  s :     0.872169
      pz      :     0.002489  p :     0.012064
      px      :     0.002936
      py      :     0.006639

 10 H s       :     0.896005  s :     0.896005
      pz      :     0.006014  p :     0.011565
      px      :     0.002544
      py      :     0.003006

 11 C s       :     3.200348  s :     3.200348
      pz      :     1.036564  p :     2.790766
      px      :     0.908019
      py      :     0.846183
      dz2     :     0.013090  d :     0.057410
      dxz     :     0.004648
      dyz     :     0.009151
      dx2y2   :     0.016594
      dxy     :     0.013928

 12 H s       :     0.869744  s :     0.869744
      pz      :     0.002565  p :     0.011562
      px      :     0.003092
      py      :     0.005906

 13 H s       :     0.887600  s :     0.887600
      pz      :     0.006273  p :     0.011553
      px      :     0.002531
      py      :     0.002749

 14 C s       :     2.988540  s :     2.988540
      pz      :     0.781060  p :     2.402565
      px      :     0.894179
      py      :     0.727325
      dz2     :     0.017933  d :     0.124517
      dxz     :     0.017877
      dyz     :     0.023063
      dx2y2   :     0.038428
      dxy     :     0.027216

 15 H s       :     0.644271  s :     0.644271
      pz      :     0.009916  p :     0.037904
      px      :     0.020320
      py      :     0.007668

 16 N s       :     3.586626  s :     3.586626
      pz      :     1.175491  p :     3.936485
      px      :     1.691582
      py      :     1.069412
      dz2     :     0.005772  d :     0.028431
      dxz     :     0.005162
      dyz     :     0.005636
      dx2y2   :     0.003366
      dxy     :     0.008495

 17 O s       :     3.824209  s :     3.824209
      pz      :     1.726212  p :     4.607754
      px      :     1.358307
      py      :     1.523235
      dz2     :     0.003539  d :     0.022735
      dxz     :     0.002953
      dyz     :     0.005166
      dx2y2   :     0.008076
      dxy     :     0.003002

 18 H s       :     0.887785  s :     0.887785
      pz      :     0.003659  p :     0.010738
      px      :     0.003391
      py      :     0.003688

 19 H s       :     0.885970  s :     0.885970
      pz      :     0.005982  p :     0.010817
      px      :     0.002444
      py      :     0.002392

 20 H s       :     0.730270  s :     0.730270
      pz      :     0.011024  p :     0.023938
      px      :     0.008024
      py      :     0.004891

 21 O s       :     3.854968  s :     3.854968
      pz      :     1.399799  p :     4.536073
      px      :     1.616874
      py      :     1.519400
      dz2     :     0.006624  d :     0.028055
      dxz     :     0.004349
      dyz     :     0.005669
      dx2y2   :     0.005283
      dxy     :     0.006130

 22 H s       :     0.864500  s :     0.864500
      pz      :     0.006424  p :     0.011009
      px      :     0.002514
      py      :     0.002070

 23 H s       :     0.731280  s :     0.731280
      pz      :     0.007542  p :     0.023931
      px      :     0.008862
      py      :     0.007528



                     *******************************
                     * LOEWDIN POPULATION ANALYSIS *
                     *******************************

----------------------
LOEWDIN ATOMIC CHARGES
----------------------
   0 C :   -0.072987
   1 C :   -0.144622
   2 H :    0.119387
   3 H :    0.120241
   4 N :   -0.267402
   5 C :   -0.128167
   6 H :    0.062796
   7 H :    0.059773
   8 C :   -0.115631
   9 H :    0.069883
  10 H :    0.063331
  11 C :   -0.051056
  12 H :    0.074440
  13 H :    0.067824
  14 C :    0.100944
  15 H :    0.181813
  16 N :   -0.243585
  17 O :   -0.140706
  18 H :    0.065209
  19 H :    0.065023
  20 H :    0.127591
  21 O :   -0.224503
  22 H :    0.082329
  23 H :    0.128075

-------------------------------
LOEWDIN REDUCED ORBITAL CHARGES
-------------------------------
  0 C s       :     2.890734  s :     2.890734
      pz      :     1.081527  p :     3.066294
      px      :     1.014608
      py      :     0.970158
      dz2     :     0.021544  d :     0.115960
      dxz     :     0.012654
      dyz     :     0.017807
      dx2y2   :     0.032387
      dxy     :     0.031569

  1 C s       :     2.912065  s :     2.912065
      pz      :     1.056524  p :     3.150915
      px      :     1.032579
      py      :     1.061813
      dz2     :     0.021511  d :     0.081642
      dxz     :     0.013702
      dyz     :     0.010333
      dx2y2   :     0.021159
      dxy     :     0.014937

  2 H s       :     0.802033  s :     0.802033
      pz      :     0.039195  p :     0.078580
      px      :     0.023739
      py      :     0.015646

  3 H s       :     0.799954  s :     0.799954
      pz      :     0.024889  p :     0.079805
      px      :     0.028937
      py      :     0.025979

  4 N s       :     3.196186  s :     3.196186
      pz      :     1.198028  p :     4.012990
      px      :     1.665646
      py      :     1.149316
      dz2     :     0.012286  d :     0.058226
      dxz     :     0.004479
      dyz     :     0.018275
      dx2y2   :     0.006579
      dxy     :     0.016607

  5 C s       :     2.897135  s :     2.897135
      pz      :     1.056997  p :     3.148655
      px      :     1.012257
      py      :     1.079401
      dz2     :     0.021824  d :     0.082377
      dxz     :     0.013632
      dyz     :     0.009839
      dx2y2   :     0.022086
      dxy     :     0.014996

  6 H s       :     0.897694  s :     0.897694
      pz      :     0.006951  p :     0.039510
      px      :     0.009932
      py      :     0.022627

  7 H s       :     0.901295  s :     0.901295
      pz      :     0.022604  p :     0.038932
      px      :     0.007367
      py      :     0.008961

  8 C s       :     2.903264  s :     2.903264
      pz      :     1.057338  p :     3.130773
      px      :     1.021090
      py      :     1.052345
      dz2     :     0.022329  d :     0.081594
      dxz     :     0.012932
      dyz     :     0.009180
      dx2y2   :     0.018458
      dxy     :     0.018695

  9 H s       :     0.888132  s :     0.888132
      pz      :     0.006865  p :     0.041985
      px      :     0.009138
      py      :     0.025982

 10 H s       :     0.897689  s :     0.897689
      pz      :     0.022903  p :     0.038980
      px      :     0.007032
      py      :     0.009046

 11 C s       :     2.881162  s :     2.881162
      pz      :     1.067659  p :     3.039163
      px      :     1.008991
      py      :     0.962514
      dz2     :     0.028450  d :     0.130730
      dxz     :     0.011071
      dyz     :     0.019123
      dx2y2   :     0.040301
      dxy     :     0.031785

 12 H s       :     0.885596  s :     0.885596
      pz      :     0.007129  p :     0.039964
      px      :     0.009678
      py      :     0.023158

 13 H s       :     0.892729  s :     0.892729
      pz      :     0.024231  p :     0.039447
      px      :     0.007255
      py      :     0.007961

 14 C s       :     2.857939  s :     2.857939
      pz      :     0.851203  p :     2.743148
      px      :     0.996664
      py      :     0.895281
      dz2     :     0.037909  d :     0.297969
      dxz     :     0.041457
      dyz     :     0.058453
      dx2y2   :     0.095451
      dxy     :     0.064700

 15 H s       :     0.702476  s :     0.702476
      pz      :     0.029109  p :     0.115711
      px      :     0.065031
      py      :     0.021571

 16 N s       :     3.195477  s :     3.195477
      pz      :     1.192663  p :     3.990333
      px      :     1.667705
      py      :     1.129966
      dz2     :     0.013089  d :     0.057774
      dxz     :     0.006789
      dyz     :     0.014511
      dx2y2   :     0.007911
      dxy     :     0.015474

 17 O s       :     3.470063  s :     3.470063
      pz      :     1.703310  p :     4.619647
      px      :     1.368574
      py      :     1.547763
      dz2     :     0.006695  d :     0.050995
      dxz     :     0.005688
      dyz     :     0.009951
      dx2y2   :     0.018323
      dxy     :     0.010338

 18 H s       :     0.897152  s :     0.897152
      pz      :     0.012520  p :     0.037638
      px      :     0.011492
      py      :     0.013626

 19 H s       :     0.897255  s :     0.897255
      pz      :     0.023437  p :     0.037722
      px      :     0.006527
      py      :     0.007759

 20 H s       :     0.793201  s :     0.793201
      pz      :     0.041365  p :     0.079209
      px      :     0.024070
      py      :     0.013773

 21 O s       :     3.554402  s :     3.554402
      pz      :     1.421823  p :     4.612057
      px      :     1.637257
      py      :     1.552977
      dz2     :     0.009287  d :     0.058044
      dxz     :     0.010437
      dyz     :     0.013824
      dx2y2   :     0.010378
      dxy     :     0.014118

 22 H s       :     0.878193  s :     0.878193
      pz      :     0.025048  p :     0.039478
      px      :     0.007389
      py      :     0.007041

 23 H s       :     0.793031  s :     0.793031
      pz      :     0.023551  p :     0.078894
      px      :     0.030315
      py      :     0.025027



                      *****************************
                      * MAYER POPULATION ANALYSIS *
                      *****************************

  NA   - Mulliken gross atomic population
  ZA   - Total nuclear charge
  QA   - Mulliken gross atomic charge
  VA   - Mayer's total valence
  BVA  - Mayer's bonded valence
  FA   - Mayer's free valence

  ATOM       NA         ZA         QA         VA         BVA        FA
  0 C      6.0854     6.0000    -0.0854     3.9167     3.9167    -0.0000
  1 C      6.1927     6.0000    -0.1927     3.8600     3.8600    -0.0000
  2 H      0.7688     1.0000     0.2312     0.9237     0.9237     0.0000
  3 H      0.7611     1.0000     0.2389     0.9254     0.9254     0.0000
  4 N      7.5720     7.0000    -0.5720     2.8995     2.8995     0.0000
  5 C      6.1799     6.0000    -0.1799     3.8790     3.8790     0.0000
  6 H      0.9115     1.0000     0.0885     0.9549     0.9549     0.0000
  7 H      0.9126     1.0000     0.0874     0.9579     0.9579    -0.0000
  8 C      6.1919     6.0000    -0.1919     3.8798     3.8798    -0.0000
  9 H      0.8842     1.0000     0.1158     0.9769     0.9769    -0.0000
 10 H      0.9076     1.0000     0.0924     0.9563     0.9563    -0.0000
 11 C      6.0485     6.0000    -0.0485     3.8622     3.8622     0.0000
 12 H      0.8813     1.0000     0.1187     0.9565     0.9565     0.0000
 13 H      0.8992     1.0000     0.1008     0.9574     0.9574    -0.0000
 14 C      5.5156     6.0000     0.4844     3.9595     3.9595    -0.0000
 15 H      0.6822     1.0000     0.3178     0.9176     0.9176    -0.0000
 16 N      7.5515     7.0000    -0.5515     2.9151     2.9151     0.0000
 17 O      8.4547     8.0000    -0.4547     2.0310     2.0310    -0.0000
 18 H      0.8985     1.0000     0.1015     0.9493     0.9493     0.0000
 19 H      0.8968     1.0000     0.1032     0.9519     0.9519     0.0000
 20 H      0.7542     1.0000     0.2458     0.9303     0.9303     0.0000
 21 O      8.4191     8.0000    -0.4191     2.1164     2.1164     0.0000
 22 H      0.8755     1.0000     0.1245     0.9513     0.9513    -0.0000
 23 H      0.7552     1.0000     0.2448     0.9207     0.9207     0.0000

  Mayer bond orders larger than 0.100000
B(  0-C ,  1-C ) :   0.9748 B(  0-C ,  4-N ) :   1.0412 B(  0-C , 18-H ) :   0.9513 
B(  0-C , 19-H ) :   0.9506 B(  1-C ,  5-C ) :   1.0027 B(  1-C ,  6-H ) :   0.9397 
B(  1-C ,  7-H ) :   0.9483 B(  2-H ,  4-N ) :   0.9145 B(  3-H ,  4-N ) :   0.9105 
B(  5-C ,  8-C ) :   1.0024 B(  5-C ,  9-H ) :   0.9285 B(  5-C , 10-H ) :   0.9491 
B(  8-C , 11-C ) :   0.9721 B(  8-C , 12-H ) :   0.9421 B(  8-C , 13-H ) :   0.9429 
B( 11-C , 14-C ) :   0.8976 B( 11-C , 16-N ) :   1.0501 B( 11-C , 22-H ) :   0.9230 
B( 14-C , 17-O ) :   1.0816 B( 14-C , 21-O ) :   1.9308 B( 15-H , 17-O ) :   0.8515 
B( 16-N , 20-H ) :   0.8995 B( 16-N , 23-H ) :   0.9080 

-------
TIMINGS
-------

Total SCF time: 0 days 0 hours 0 min 5 sec 

Total time                  ....       5.331 sec
Sum of individual times     ....       4.869 sec  ( 91.3%)

SCF preparation             ....       0.028 sec  (  0.5%)
Fock matrix formation       ....       4.777 sec  ( 89.6%)
  Startup                   ....       0.001 sec  (  0.0% of F)
  Split-RI-J                ....       1.828 sec  ( 38.3% of F)
  XC integration            ....       3.396 sec  ( 71.1% of F)
    XC Preparation          ....       0.000 sec  (  0.0% of XC)
    Basis function eval.    ....       1.173 sec  ( 34.5% of XC)
    Density eval.           ....       0.756 sec  ( 22.3% of XC)
    XC-Functional eval.     ....       0.613 sec  ( 18.0% of XC)
    XC-Potential eval.      ....       0.762 sec  ( 22.4% of XC)
Diagonalization             ....       0.000 sec  (  0.0%)
Density matrix formation    ....       0.004 sec  (  0.1%)
Total Energy calculation    ....       0.001 sec  (  0.0%)
Population analysis         ....       0.003 sec  (  0.1%)
Orbital Transformation      ....       0.008 sec  (  0.1%)
Orbital Orthonormalization  ....       0.000 sec  (  0.0%)
DIIS solution               ....       0.039 sec  (  0.7%)
SOSCF solution              ....       0.009 sec  (  0.2%)
Finished LeanSCF after   5.3 sec

Maximum memory used throughout the entire LEANSCF-calculation: 22.7 MB



-------------------------------------------------------------------------------
                          DFT DISPERSION CORRECTION                            
-------------------------------------------------------------------------------
Active option DFTDOPT                   ...         2   
Final C6-coefficient scaling factor     ...     1.250
Final VDW-radii scaling factor          ...     1.100
Damping factor alpha                    ...    20.000
-------------------------   ----------------
Dispersion correction           -0.034350685
-------------------------   ----------------


-------------------------   --------------------
FINAL SINGLE POINT ENERGY      -496.713936150770
-------------------------   --------------------


------------------------------------------------------------------------------
                              ORCA PROPERTY CALCULATIONS
------------------------------------------------------------------------------

GBWName                                 ... 1.gbw
Number of atoms                         ...     24
Number of basis functions               ...    210
Max core memory                         ...   4096 MB

Electric properties:
Dipole moment                           ... YES
Quadrupole moment                       ...  NO
Static polarizability (Dipole/Dipole)   ...  NO
Static polarizability (Dipole/Quad.)    ...  NO
Static polarizability (Quad./Quad.)     ...  NO
Static polarizability (Velocity)        ...  NO
Static hyperpolarizability              ...  NO

Atomic electric properties:
Dipole moment                           ...  NO
Quadrupole moment                       ...  NO
Static polarizability                   ...  NO

Choice of electric origin               ... Center of mass
Position of electric origin             ...   -20.065459    11.012979     1.017206

General magnetic properties:
Magnetizability                         ...  NO

EPR properties:
g-Tensor (aka g-matrix)                 ...  NO
Zero-Field splitting spin-orbit         ...  NO
Zero-field splitting spin-spin          ...  NO
Hyperfine couplings                     ...  NO (   0 nuclei)
Quadrupole couplings                    ...  NO (   0 nuclei)
Contact density                         ...  NO (   0 nuclei)

NMR properties:
Chemical shifts                         ...  NO (   0 nuclei)
Spin-rotation constants                 ...  NO (   0 nuclei)
Spin-spin couplings                     ...  NO (   0 nuclei,    0 pairs)

Choice of magnetic origin               ... GIAO
Position of magnetic origin             ...     0.000000     0.000000     0.000000

Properties with geometric perturbations:
SCF Hessian                             ...  NO
IR spectrum                             ...  NO
VCD spectrum                            ...  NO
X-ray spectroscopy properties:
SCF XES/XAS/RIXS spectra                ...  NO

SCF SOC stabilization energy            ...  NO
Diagonal Born-Oppenheimer correction    ...  NO

-------------
DIPOLE MOMENT
-------------

Method             : SCF
Type of density    : Electron Density
Multiplicity       :   1
Irrep              :   0
Energy             :  -496.6795854658450935 Eh
Basis              : AO
                                X                 Y                 Z
Electronic contribution:     14.100135981      -2.806786310      -1.224749446
Nuclear contribution   :    -13.389302555       3.088082594       1.164023727
                        -----------------------------------------
Total Dipole Moment    :      0.710833426       0.281296284      -0.060725719
                        -----------------------------------------
Magnitude (a.u.)       :      0.766876373
Magnitude (Debye)      :      1.949244831



--------------------
Rotational spectrum 
--------------------
 
Rotational constants in cm-1:             0.105204             0.015974             0.014671 
Rotational constants in MHz :          3153.934342           478.899254           439.824255 

Dipole components along the rotational axes: 
x,y,z [a.u.] :    -0.647782     0.410347    -0.009634 
x,y,z [Debye]:    -1.646531     1.043020    -0.024488 

 

Dipole moment calculation done in   0.0 sec 

Maximum memory used throughout the entire PROP-calculation: 12.9 MB

--------------------------------
SUGGESTED CITATIONS FOR THIS RUN
--------------------------------

Below you find a list of papers that are relevant to this ORCA run
We neither can nor want to force you to cite these papers, but we appreciate if you do
You receive ORCA, which is the product of decades of hard work by many enthusiastic individuals, for free
The only thing we kindly ask in return is that you cite our papers,
We deeply appreciate it, if you show your appreciation for ORCA by not just citing the generic ORCA reference.

Please note that relegating all ORCA citations to the supporting information does *not* help us.
SI sections are not indexed - citations you put there will not count into any citation statistics
But we need these citations in order to attract the funding resources that allow us to do what we are doing

Therefore, if you are a happy ORCA user, please consider citing a few of the papers listed below in the main body of your paper

In addition to the list printed below, the program has created the file 1.bibtex that contains the list in bibtex format
You can import this file easily into all common literature databanks and citation aid programs


List of essential papers. We consider these as the minimum necessary citations

  1. Neese, F.
     Software update: the ORCA program system, version 6.0
     WIRES Comput. Molec. Sci. 2025 15(1), e70019
     doi.org/10.1002/wcms.7019

List of papers to cite with high priority. The work reported in these papers was absolutely
necessary for this run to complete.
Our perspective: the developers of density functionals and basis sets usually get cited in chemistry papers
Good! But without the algorithms to do something with them, the functionals or basis sets would not do anything.
Hence, in our opinion, the algorithm design and method developments papers are equally worthy of getting cited

  1. Neese, F.
     An improvement of the resolution of the identity approximation for the formation of the Coulomb matrix
     J. Comp. Chem. 2003 24(14), 1740-1747
     doi.org/10.1002/jcc.10318
  2. Grimme, S.
     Semiempirical GGA-type density functional constructed with a long-range dispersion correction
     J.Comput.Chem. 2006 27(15), 1787-1799
     doi.org/10.1002/jcc.20495
  3. Neese, F.
     The SHARK Integral Generation and Digestion System
     J. Comp. Chem. 2022 44(3), 381
     doi.org/10.1002/jcc.26942

List of suggested additional citations. These are papers that are important in the 'surrounding' of 
of this run, or papers that preceded the highly important papers. If you like your results we are grateful for a citation.

  1. Neese, F.
     The ORCA program system
     WIRES Comput. Molec. Sci. 2012 2(1), 73-78
     doi.org/10.1002/wcms.81
  2. Neese, F.
     Software update: the ORCA program system, version 4.0
     WIRES Comput. Molec. Sci. 2018 8(1), 1-6
     doi.org/10.1002/wcms.1327
  3. Neese, F.; Wennmohs, F.; Becker, U.; Riplinger, C.
     The ORCA quantum chemistry program package
     J. Chem. Phys. 2020 152(22), 224108
     doi.org/10.1063/5.0004608
  4. Neese, F.
     Software update: The ORCA program system—Version 5.0
     WIRES Comput. Molec. Sci. 2022 12(1), e1606
     doi.org/10.1002/wcms.1606

List of optional additional citations

  1. Neese, F.
     Approximate second-order SCF convergence for spin unrestricted wavefunctions
     Chem. Phys. Lett. 2000 325(1-3), 93-98
     doi.org/10.1016/s0009-2614(00)00662-x

Timings for individual modules:

Sum of individual times          ...        6.222 sec (=   0.104 min)
Startup calculation              ...        0.509 sec (=   0.008 min)   8.2 %
SCF iterations                   ...        5.680 sec (=   0.095 min)  91.3 %
Property calculations            ...        0.033 sec (=   0.001 min)   0.5 %
                             ****ORCA TERMINATED NORMALLY****
TOTAL RUN TIME: 0 days 0 hours 0 minutes 6 seconds 265 msec
