
                                 *****************
                                 * O   R   C   A *
                                 *****************

                                            #,                                       
                                            ###                                      
                                            ####                                     
                                            #####                                    
                                            ######                                   
                                           ########,                                 
                                     ,,################,,,,,                         
                               ,,#################################,,                 
                          ,,##########################################,,             
                       ,#########################################, ''#####,          
                    ,#############################################,,   '####,        
                  ,##################################################,,,,####,       
                ,###########''''           ''''###############################       
              ,#####''   ,,,,##########,,,,          '''####'''          '####       
            ,##' ,,,,###########################,,,                        '##       
           ' ,,###''''                  '''############,,,                           
         ,,##''                                '''############,,,,        ,,,,,,###''
      ,#''                                            '''#######################'''  
     '                                                          ''''####''''         
             ,#######,   #######,   ,#######,      ##                                
            ,#'     '#,  ##    ##  ,#'     '#,    #''#        ,####,    ,#,          
            ##       ##  ##   ,#'  ##            #'  '#       #'       ,# #          
            ##       ##  #######   ##           ,######,      #####,      #          
            '#,     ,#'  ##    ##  '#,     ,#' ,#      #,     #,   #      #          
             '#######'   ##     ##  '#######'  #'      '#     '####' #    #          



                #########################################################
                #                        -***-                          #
                #          Department of theory and spectroscopy        #
                #                                                       #
                #                      Frank Neese                      #
                #                                                       #
                #     Directorship, Architecture, Infrastructure        #
                #                    SHARK, DRIVERS                     #
                #        Core code/Algorithms in most modules           #
                #                                                       #
                #        Max Planck Institute fuer Kohlenforschung      #
                #                Kaiser Wilhelm Platz 1                 #
                #                 D-45470 Muelheim/Ruhr                 #
                #                      Germany                          #
                #                                                       #
                #                  All rights reserved                  #
                #                        -***-                          #
                #########################################################


                         Program Version 6.1.0  -  RELEASE   -
                                (GIT: $679e74b$)
                          ($2025-06-10 18:02:51 +0200$)


 With contributions from (in alphabetic order):
[Max-Planck-Institut fuer Kohlenforschung]                               
  Daniel Aravena         : Magnetic Suceptibility                        
  Michael Atanasov       : Ab Initio Ligand Field Theory (pilot matlab implementation)
  Alexander A. Auer      : GIAO ZORA, VPT2 properties, NMR spectrum      
  Ute Becker             : All parallelization in ORCA, NUMFREQ, NUMCALC 
  Giovanni Bistoni       : ED, misc. LED, open-shell LED, HFLD           
  Dmytro Bykov           : pre 5.0 version of the SCF Hessian            
  Marcos Casanova-Páez   : Triplet and SCS-CIS(D). UHF-(DLPNO)-IP/EA/STEOM-CCSD. UHF-CVS-IP/STEOM-CCSD   
  Vijay G. Chilkuri      : MRCI spin determinant printing, contributions to CSF-ICE 
  Pauline Colinet        : FMM embedding                                 
  Dipayan Datta          : RHF DLPNO-CCSD density                        
  Achintya Kumar Dutta   : EOM-CC, STEOM-CC                              
  Nicolas Foglia         : Exact transition moments, OPA infrastructure, MCD improvements    
  Dmitry Ganyushin       : Spin-Orbit,Spin-Spin,Magnetic field MRCI      
  Miquel Garcia-Rates    : C-PCM and meta-GGA Hessian, CCSD/C-PCM, Gaussian charge scheme 
  Tiago L. C. Gouveia    : GS-ROHF, GS-ROCIS                             
  Yang Guo               : DLPNO-NEVPT2, F12-NEVPT2, CIM, IAO-localization        
  Andreas Hansen         : Spin unrestricted coupled pair/coupled cluster methods 
  Ingolf Harden          : AUTO-CI MPn and infrastructure                
  Benjamin Helmich-Paris : MC-RPA, TRAH-(SCF,CASSCF), AVAS, COSX integrals, SCF dyn. polar., MC-PDFT, srDFT 
  Lee Huntington         : MR-EOM, pCC                                   
  Robert Izsak           : Overlap fitted RIJCOSX, COSX-SCS-MP3, EOM     
  Riya Kayal             : Wick's Theorem for AUTO-CI, AUTO-CI UHF-CCSDT 
  Emily Kempfer          : AUTO-CI RHF CISDT and CCSDT, approximate NEVPT4
  Christian Kollmar      : KDIIS, OOCD, Brueckner-CCSD(T), CCSD density, CASPT2, CASPT2-K, improved NEVPT2 
  Axel Koslowski         : Symmetry handling                             
  Simone Kossmann        : meta-GGA functionals, TD-DFT gradient, OOMP2, (MP2 Hessian; deprecated post 5.0) 
  Lucas Lang             : DCDCAS, Hyperfine gauge corrections, ICE-SOC+SSC
  Marvin Lechner         : AUTO-CI (C++ implementation), FIC-MRCC        
  Spencer Leger          : CASSCF response                               
  Dagmar Lenk            : GEPOL surface, SMD, ORCA-2-JSON               
  Dimitrios Liakos       : Extrapolation schemes; Compound Job, Property file
  Dimitrios Manganas     : Further ROCIS development; embedding schemes. LFT, Crystal Embedding 
  Dimitrios Pantazis     : SARC Basis sets                               
  Anastasios Papadopoulos: AUTO-CI, single reference methods and gradients 
  Taras Petrenko         : pre 6.0 DFT Hessian and TD-DFT gradient,  ECA, NRVS 
  Petra Pikulova         : Analytic Raman intensities                    
  Peter Pinski           : DLPNO-MP2, DLPNO-MP2 Gradient                 
  Shashank Vittal Rao    : ES-AILFT, MagRelax                            
  Christoph Reimann      : Effective Core Potentials                     
  Marius Retegan         : Local ZFS, SOC                                
  Christoph Riplinger    : Optimizer, TS searches, QM/MM, DLPNO-CCSD(T), (RO)-DLPNO pert. Triples 
  Michael Roemelt        : Original ROCIS implementation, recursive CI coupling coefficients
  Masaaki Saitow         : Open-shell DLPNO-CCSD energy and density      
  Barbara Sandhoefer     : DKH picture change effects                    
  Yorick L. A. Schmerwitz: GMF and freeze-and-release deltaSCF, NEB S-IDPP initial path                    
  Kantharuban Sivalingam : CASSCF convergence/infrastructure, NEVPT2, NEVPT3, NEVPT4(SD), FIC-MRCI and CEPA variants
  Bernardo de Souza      : ESD, SOC TD-DFT                               
  Georgi L. Stoychev     : AutoAux, RI-MP2 NMR, DLPNO-MP2 response, X2C  
  Van Anh Tran           : RI-MP2 g-tensors                              
  Willem Van den Heuvel  : Paramagnetic NMR                              
  Zikuan Wang            : NOTCH, Electric field optimization            
  Frank Wennmohs         : Technical directorship and infrastructure     
  Hang Xu                : AUTO-CI-Response properties                   
                                                                         
[FACCTs GmbH]                                                            
  Markus Bursch, Nicolas Foglia, Miquel Garcia-Rates, Ingolf Harden, Hagen Neugebauer, Anastasios Papadopoulos, 
  Christoph Riplinger, Bernardo de Souza, Georgi L. Stoychev                                                    
                                                                 
  APM, various basis sets, CI-OPT, improved COSX, DLPNO-Multilevel,           
  DOCKER, DRACO, updates on ESD, Fragmentator, GOAT, IRC, LR-CPCM, L-BFGS, MBIS, meta-GGA TD-DFT gradient, ML-optimized integration grids, 
  MM, NACMEs, nearIR, NEB, NEB-TS, NL-DFT gradient (VV10), 2- and 3-layer-ONIOM, interface openCOSMO-RS, QMMM,   
  Crystal-QMMM, RESP, rigid body optimization, SF, symmetry and pop. for TD-DFT, various functionals, SOLVATOR                                   
                                                                         
[Other institutions]                                                     
  V. Asgeirsson          : NEB                                           
  Christoph Bannwarth    : sTDA-DFT, sTD-DFT, PBEh-3c, B97-3c, D3        
  Giovanni Bistoni       : ETS/NOCV, ADLD/ADEX, COVALED                  
  Martin Brehm           : Molecular dynamics                            
  Ronald Cardenas        : ETS/NOCV                                      
  Martina Colucci        : COVALED                                       
  Sebastian Ehlert       : rSCAN, r2SCAN, r2SCAN-3c, D4, dhf basis sets  
  Marvin Friede          : D4 for Fr, Ra, Ac-Lr                          
  Lars Goerigk           : TD-DFT with DH, B97 family of functionals     
  Stefan Grimme          : VdW corrections, initial TS optimization, DFT functionals, gCP, sTDA/sTD-DF 
  Waldemar Hujo          : DFT-NL                                        
  H. Jonsson             : NEB                                           
  Holger Kruse           : gCP                                           
  Marcel Mueller         : wB97X-3c, vDZP basis set                      
  Hagen Neugebauer       : wr2SCAN, Native XTB                           
  Gianluca Regni         : ADLD/ADEX                                     
  Tobias Risthaus        : pre 6.0 range-separated hybrid DFT and stability analysis
  Lukas Wittmann         : regularized MP2, r2SCAN double-hybrids, wr2SCAN        
                                                                         
We gratefully acknowledge several colleagues who have allowed us to      
interface, adapt or use parts of their codes:                            
  Ed Valeev, F. Pavosevic, A. Kumar             : LibInt (2-el integral package), F12 methods 
  Garnet Chan, S. Sharma, J. Yang, R. Olivares  : DMRG                   
  Ulf Ekstrom                                   : XCFun DFT Library      
  Mihaly Kallay                                 : mrcc  (arbitrary order and MRCC methods)
  Frank Weinhold                                : gennbo (NPA and NBO analysis)           
  Simon Mueller                                 : openCOSMO-RS                            
  Christopher J. Cramer and Donald G. Truhlar   : smd solvation model                     
  S Lehtola, MJT Oliveira, MAL Marques          : LibXC Library                           
  Liviu Ungur et al                             : ANISO software                          


 Your calculation uses the libint2 library for the computation of 2-el integrals
 For citations please refer to: http://libint.valeyev.net

 Your ORCA version has been built with support for libXC version: 7.0.0
 For citations please refer to: https://libxc.gitlab.io

 This ORCA versions uses:
   CBLAS   interface :  Fast vector & matrix operations
   LAPACKE interface :  Fast linear algebra routines
   SCALAPACK package :  Parallel linear algebra routines
   Shared memory     :  Shared parallel matrices
   BLAS/LAPACK       :  OpenBLAS 0.3.29  USE64BITINT DYNAMIC_ARCH NO_AFFINITY Haswell SINGLE_THREADED
        Core in use  :  Haswell
   Copyright (c) 2011-2014, The OpenBLAS Project


  ***********************************
  * Starting time: Sat Aug 30 15:49:52 2025
  * Host name:     chemlab03
  * Process ID:    80334
  * Working dir.:  /home/vivek/mm-project/vivek/xtb-goat/B97-D-opt/g/3
  ***********************************



***************************************
The coordinates will be read from file: /home/vivek/mm-project/vivek/xtb-goat/xtb-goat/g/G_CONF/3.xyz
***************************************


Your calculation utilizes empirical dispersion correction


Warning: RI is on but no J-basis has been assigned. Assigning Def2/J (nothing to worry about!)
================================================================================

----- Orbital basis set information -----
Your calculation utilizes the basis: 6-31G**
   H-He, Li-Ne : W. J. Hehre, R. Ditchfield and J.A. Pople, J. Chem. Phys. 56, 2257 (1972).
                 Note: He and Ne are unpublished basis sets taken from the Gaussian program.
                 Note: Li and B from J. D. Dill and J. A. Pople, J. Chem. Phys. 62, 2921 (1975).
   Na - Ar     : M. M. Francl, W. J. Pietro, W. J. Hehre, J. S. Binkley, M. S. Gordon, 
                 D. J. DeFrees and J. A. Pople, J. Chem. Phys. 77, 3654 (1982).
   K - Zn      : V. A. Rassolov, J. A. Pople, M. A. Ratner, and T. L. Windus, J. Chem. Phys. 109, 1223 (1998).

----- AuxJ basis set information -----
Your calculation utilizes the auxiliary basis: def2/J
   H-Rn: F. Weigend, Phys. Chem. Chem. Phys. 8, 1057 (2006).
   Fr-Lr: K. Eichkorn, F. Weigend, O. Treutler, R. Ahlrichs; Theor. Chem. Acc. 97, 119 (1997).

================================================================================
                                        WARNINGS
                       Please study these warnings very carefully!
================================================================================


WARNING: Geometry Optimization
  ===> : Switching off AutoStart
         For restart on a previous wavefunction, please use MOREAD

INFO   : The exchange functional is Grimme's B97(-D)
         As described in S. Grimme, J. Comput. Chem. 27, 1787 (2006).
         Note that this functional defaults to a pure GGA. 

INFO   : The correlation functional is Grimme's B97(-D)
         As described in S. Grimme, J. Comput. Chem. 27, 1787 (2006).

================================================================================
                                       INPUT FILE
================================================================================
NAME = 3.inp
|  1> ! B97-D 6-31G** opt
|  2> 
|  3> * xyzfile 0 1 /home/vivek/mm-project/vivek/xtb-goat/xtb-goat/g/G_CONF/3.xyz
|  4> 
|  5>                          ****END OF INPUT****
================================================================================

                       *****************************
                       * Geometry Optimization Run *
                       *****************************

Geometry optimization settings:
Update method            Update   .... BFGS
Choice of coordinates    CoordSys .... (2022) Redundant Internals
Initial Hessian          InHess   .... Almloef's Model
Max. no of cycles        MaxIter  .... 50

Convergence Tolerances:
Energy Change            TolE     ....  5.0000e-06 Eh
Max. Gradient            TolMAXG  ....  3.0000e-04 Eh/bohr
RMS Gradient             TolRMSG  ....  1.0000e-04 Eh/bohr
Max. Displacement        TolMAXD  ....  4.0000e-03 bohr
RMS Displacement         TolRMSD  ....  2.0000e-03 bohr
Strict Convergence                .... False

------------------------------------------------------------------------------
                        ORCA OPTIMIZATION COORDINATE SETUP
------------------------------------------------------------------------------

The optimization will be done in redundant internal coordinates (2022)
Making redundant internal coordinates   ...  (2022 redundants) done
Evaluating the initial hessian          ...  (Almloef) done
Evaluating the coordinates              ...  done
Calculating the B-matrix                .... done
Calculating the G-matrix                .... done
The number of degrees of freedom        ....   35

    -----------------------------------------------------------------
                    Redundant Internal Coordinates


    -----------------------------------------------------------------
         Definition                    Initial Value    Approx d2E/dq
    -----------------------------------------------------------------
      1. B(C   1,C   0)                  1.5119         0.399266   
      2. B(N   4,H   2)                  1.0124         0.428964   
      3. B(N   4,C   0)                  1.4497         0.449389   
      4. B(N   4,H   3)                  1.0161         0.423184   
      5. B(O   5,C   1)                  1.3363         0.681610   
      6. B(H   6,C   0)                  1.0952         0.353266   
      7. B(H   7,C   0)                  1.1023         0.344193   
      8. B(H   8,O   5)                  0.9708         0.499781   
      9. B(O   9,H   3)                  2.2731         0.010000   
     10. B(O   9,C   1)                  1.2013         1.119342   
     11. A(N   4,C   0,H   7)          114.0299         0.329874   
     12. A(C   1,C   0,H   7)          105.8033         0.325458   
     13. A(C   1,C   0,N   4)          110.8434         0.377018   
     14. A(H   6,C   0,H   7)          107.3490         0.287921   
     15. A(C   1,C   0,H   6)          108.6608         0.326854   
     16. A(N   4,C   0,H   6)          109.9272         0.331297   
     17. A(C   0,C   1,O   9)          124.9009         0.443100   
     18. A(C   0,C   1,O   5)          112.0325         0.405495   
     19. A(O   5,C   1,O   9)          123.0486         0.485378   
     20. A(C   0,N   4,H   3)          109.2489         0.338464   
     21. A(C   0,N   4,H   2)          111.5823         0.339231   
     22. A(H   2,N   4,H   3)          108.4956         0.301762   
     23. A(C   1,O   5,H   8)          110.4097         0.373648   
     24. D(O   5,C   1,C   0,N   4)   -161.8044         0.011833   
     25. D(O   9,C   1,C   0,N   4)     19.7042         0.011833   
     26. D(O   9,C   1,C   0,H   6)    140.6021         0.011833   
     27. D(O   5,C   1,C   0,H   6)    -40.9066         0.011833   
     28. D(O   5,C   1,C   0,H   7)     74.0978         0.011833   
     29. D(H   2,N   4,C   0,H   6)     96.0910         0.017227   
     30. D(H   2,N   4,C   0,C   1)   -143.7631         0.017227   
     31. D(H   3,N   4,C   0,H   6)   -143.9433         0.017227   
     32. D(H   3,N   4,C   0,C   1)    -23.7974         0.017227   
     33. D(H   2,N   4,C   0,H   7)    -24.5007         0.017227   
     34. D(H   8,O   5,C   1,O   9)     -0.3053         0.034619   
     35. D(H   8,O   5,C   1,C   0)   -178.8292         0.034619   
    -----------------------------------------------------------------

Number of atoms                         .... 10
Number of degrees of freedom            .... 35


         *************************************************************
         *                GEOMETRY OPTIMIZATION CYCLE   1            *
         *************************************************************
---------------------------------
CARTESIAN COORDINATES (ANGSTROEM)
---------------------------------
  C     -5.042063   -1.351505   -0.101382
  C     -4.722816   -2.284308    1.044822
  H     -6.027644    0.446265   -0.154997
  H     -5.597792   -0.054876    1.352970
  N     -5.300779   -0.009599    0.382348
  O     -4.111198   -3.397560    0.629713
  H     -4.192426   -1.341858   -0.792412
  H     -5.892689   -1.808911   -0.632680
  H     -3.934038   -3.986633    1.380717
  O     -5.002843   -2.080699    2.195129

----------------------------
CARTESIAN COORDINATES (A.U.)
----------------------------
  NO LB      ZA    FRAG     MASS         X           Y           Z
   0 C     6.0000    0    12.011   -9.528118   -2.553973   -0.191585
   1 C     6.0000    0    12.011   -8.924828   -4.316717    1.974428
   2 H     1.0000    0     1.008  -11.390596    0.843319   -0.292902
   3 H     1.0000    0     1.008  -10.578294   -0.103702    2.556742
   4 N     7.0000    0    14.007  -10.017021   -0.018139    0.722532
   5 O     8.0000    0    15.999   -7.769039   -6.420459    1.189986
   6 H     1.0000    0     1.008   -7.922537   -2.535745   -1.497441
   7 H     1.0000    0     1.008  -11.135568   -3.418347   -1.195592
   8 H     1.0000    0     1.008   -7.434255   -7.533645    2.609177
   9 O     8.0000    0    15.999   -9.454003   -3.931951    4.148193

--------------------------------
INTERNAL COORDINATES (ANGSTROEM)
--------------------------------
 C      0   0   0     0.000000000000     0.00000000     0.00000000
 C      1   0   0     1.511895007973     0.00000000     0.00000000
 H      1   2   0     2.050907334537   131.46153502     0.00000000
 H      3   1   2     1.646171247820    65.39969076    13.76554272
 N      3   1   2     1.012365403293    41.09440101    47.49133044
 O      2   1   3     1.336308889729   112.03253288   176.96840514
 H      1   2   3     1.095215612917   108.66082797   142.12502303
 H      1   2   3     1.102298618972   105.80333936   257.12940423
 H      6   2   1     0.970772487238   110.40974452   181.17082550
 O      2   1   3     1.201282104493   124.90088717   358.47704565

---------------------------
INTERNAL COORDINATES (A.U.)
---------------------------
 C      0   0   0     0.000000000000     0.00000000     0.00000000
 C      1   0   0     2.857067508312     0.00000000     0.00000000
 H      1   2   0     3.875653188325   131.46153502     0.00000000
 H      3   1   2     3.110812827915    65.39969076    13.76554272
 N      3   1   2     1.913093359681    41.09440101    47.49133044
 O      2   1   3     2.525257831913   112.03253288   176.96840514
 H      1   2   3     2.069657566007   108.66082797   142.12502303
 H      1   2   3     2.083042507657   105.80333936   257.12940423
 H      6   2   1     1.834494139226   110.40974452   181.17082550
 O      2   1   3     2.270094187073   124.90088717   358.47704565

---------------------
BASIS SET INFORMATION
---------------------
There are 4 groups of distinct atoms

 Group   1 Type C   : 10s4p1d contracted to 3s2p1d pattern {631/31/1}
 Group   2 Type H   : 4s1p contracted to 2s1p pattern {31/1}
 Group   3 Type N   : 10s4p1d contracted to 3s2p1d pattern {631/31/1}
 Group   4 Type O   : 10s4p1d contracted to 3s2p1d pattern {631/31/1}

Atom   0C    basis set group =>   1
Atom   1C    basis set group =>   1
Atom   2H    basis set group =>   2
Atom   3H    basis set group =>   2
Atom   4N    basis set group =>   3
Atom   5O    basis set group =>   4
Atom   6H    basis set group =>   2
Atom   7H    basis set group =>   2
Atom   8H    basis set group =>   2
Atom   9O    basis set group =>   4
---------------------------------
AUXILIARY/J BASIS SET INFORMATION
---------------------------------
There are 4 groups of distinct atoms

 Group   1 Type C   : 12s5p4d2f1g contracted to 6s4p3d1f1g pattern {711111/2111/211/2/1}
 Group   2 Type H   : 5s2p1d contracted to 3s1p1d pattern {311/2/1}
 Group   3 Type N   : 12s5p4d2f1g contracted to 6s4p3d1f1g pattern {711111/2111/211/2/1}
 Group   4 Type O   : 12s5p4d2f1g contracted to 6s4p3d1f1g pattern {711111/2111/211/2/1}

Atom   0C    basis set group =>   1
Atom   1C    basis set group =>   1
Atom   2H    basis set group =>   2
Atom   3H    basis set group =>   2
Atom   4N    basis set group =>   3
Atom   5O    basis set group =>   4
Atom   6H    basis set group =>   2
Atom   7H    basis set group =>   2
Atom   8H    basis set group =>   2
Atom   9O    basis set group =>   4
------------------------------------------------------------------------------
                             ORCA STARTUP CALCULATIONS
                           -- RI-GTO INTEGRALS CHOSEN --
------------------------------------------------------------------------------
------------------------------------------------------------------------------
                   ___                                                        
                  /   \      - P O W E R E D   B Y -                         
                 /     \                                                     
                 |  |  |   _    _      __       _____    __    __             
                 |  |  |  | |  | |    /  \     |  _  \  |  |  /  |          
                  \  \/   | |  | |   /    \    | | | |  |  | /  /          
                 / \  \   | |__| |  /  /\  \   | |_| |  |  |/  /          
                |  |  |   |  __  | /  /__\  \  |    /   |      \           
                |  |  |   | |  | | |   __   |  |    \   |  |\   \          
                \     /   | |  | | |  |  |  |  | |\  \  |  | \   \       
                 \___/    |_|  |_| |__|  |__|  |_| \__\ |__|  \__/        
                                                                              
                      - O R C A' S   B I G   F R I E N D -                    
                                      &                                       
                       - I N T E G R A L  F E E D E R -                       
                                                                              
 v1 FN, 2020, v2 2021, v3 2022-2024                                           
------------------------------------------------------------------------------


----------------------
SHARK INTEGRAL PACKAGE
----------------------

Number of atoms                             ...     10
Number of basis functions                   ...     95
Number of shells                            ...     45
Maximum angular momentum                    ...      2
Integral batch strategy                     ... SHARK/LIBINT Hybrid
RI-J (if used) integral strategy            ... SPLIT-RIJ (Revised 2003 algorithm where possible)
Printlevel                                  ...      1
Contraction scheme used                     ... SEGMENTED contraction
Prescreening option                         ... SCHWARTZ
   Thresh                                   ... 2.500e-11
   Tcut                                     ... 2.500e-12
   Tpresel                                  ... 2.500e-12 
Coulomb Range Separation                    ... NOT USED
Exchange Range Separation                   ... NOT USED
Multipole approximations                    ... NOT USED
Finite Nucleus Model                        ... NOT USED
CABS basis                                  ... NOT available
Auxiliary Coulomb fitting basis             ... AVAILABLE
   # of basis functions in Aux-J            ...    300
   # of shells in Aux-J                     ...    100
   Maximum angular momentum in Aux-J        ...      4
Auxiliary J/K fitting basis                 ... NOT available
Auxiliary Correlation fitting basis         ... NOT available
Auxiliary 'external' fitting basis          ... NOT available

Checking pre-screening integrals            ... done (  0.0 sec) Dimension = 45
   => SHARK Basis and OBASIS are compatible. Storing Pre-screening
Shell pair information
Shell pair cut-off parameter TPreSel        ...   2.5e-12
Total number of shell pairs                 ...      1035
Shell pairs after pre-screening             ...      1002
Total number of primitive shell pairs       ...      5170
Primitive shell pairs kept                  ...      3727
          la=0 lb=0:    311 shell pairs
          la=1 lb=0:    361 shell pairs
          la=1 lb=1:    117 shell pairs
          la=2 lb=0:    123 shell pairs
          la=2 lb=1:     75 shell pairs
          la=2 lb=2:     15 shell pairs

Checking whether 4 symmetric matrices of dimension 95 fit in memory
:Max Core in MB      =   4096.00
 MB in use           =      4.69
 MB left             =   4091.31
 MB needed           =      0.14
 Data fit in memory  = YES
Calculating RI/J V-Matrix + Cholesky decomp.... done (  0.0 sec)
Calculating Nuclear repulsion               ... done (  0.0 sec) ENN=    180.385903333635 Eh

Diagonalization of the overlap matrix:
Smallest eigenvalue                        ... 4.371e-03
Time for diagonalization                   ...    0.001 sec
Threshold for overlap eigenvalues          ... 1.000e-07
Number of eigenvalues below threshold      ... 0
Time for construction of square roots      ...    0.000 sec
Total time needed                          ...    0.001 sec

-------------------
DFT GRID GENERATION
-------------------

General Integration Accuracy     IntAcc      ... 4.388
Radial Grid Type                 RadialGrid  ... OptM3 with GC (2021)
Angular Grid (max. ang.)         AngularGrid ... 4 (Lebedev-302)
Angular grid pruning method      GridPruning ... 4 (adaptive)
Weight generation scheme         WeightScheme... mBecke (2022)
Basis function cutoff            BFCut       ... 1.0000e-11
Integration weight cutoff        WCut        ... 1.0000e-14
Partially contracted basis set               ... off
Rotationally invariant grid construction     ... off
Angular grids for H and He will be reduced by one unit

Total number of grid points                  ...    46618
Total number of batches                      ...      734
Average number of points per batch           ...       63
Average number of grid points per atom       ...     4662
Grids setup in   0.1 sec
Initializing property integral containers    ... done (  0.0 sec)

SHARK setup successfully completed in   0.2 seconds

Maximum memory used throughout the entire STARTUP-calculation: 19.8 MB
-------------------------------------------------------------------------------
                                 ORCA GUESS
                   Start orbitals & Density for SCF / CASSCF
-------------------------------------------------------------------------------

------------
SCF SETTINGS
------------
Hamiltonian:
 Density Functional     Method          .... DFT(GTOs)
 Exchange Functional    Exchange        .... B97(D)
 Correlation Functional Correlation     .... B97(D)
 Gradients option       PostSCFGGA      .... off
 RI-approximation to the Coulomb term is turned on
   Number of AuxJ basis functions       .... 300


General Settings:
 Integral files         IntName         .... 3
 Hartree-Fock type      HFTyp           .... RHF
 Total Charge           Charge          ....    0
 Multiplicity           Mult            ....    1
 Number of Electrons    NEL             ....   40
 Basis Dimension        Dim             ....   95
 Nuclear Repulsion      ENuc            ....    180.3859033336 Eh

Convergence Acceleration:
 AO-DIIS                CNVDIIS         .... on
   Start iteration      DIISMaxIt       ....    12
   Startup error        DIISStart       ....  0.200000
   # of expansion vecs  DIISMaxEq       ....     5
   Bias factor          DIISBfac        ....   1.050
   Max. coefficient     DIISMaxC        ....  10.000
 MO-DIIS                CNVKDIIS        .... off
 Trust-Rad. Augm. Hess. CNVTRAH         .... auto
   Auto Start mean grad. ratio tolernc. ....  1.125000
   Auto Start start iteration           ....    50
   Auto Start num. interpolation iter.  ....    10
   Max. Number of Micro iterations      ....    24
   Max. Number of Macro iterations      .... Maxiter - #DIIS iter
   Number of Davidson start vectors     ....     2
   Converg. threshold    (grad. norm)   ....   1.000e-05
   Grad. Scal. Fac. for Micro threshold ....   0.100
   Minimum threshold for Micro iter.    ....   1.000e-02
   NR start threshold (gradient norm)   ....   1.000e-04
   Initial trust radius                 ....   0.400
   Minimum AH scaling param. (alpha)    ....   1.000
   Maximum AH scaling param. (alpha)    .... 1000.000
   Quad. conv. algorithm                .... NR
   White noise on init. David. guess    .... on
   Maximum white noise                  ....   0.010
   Pseudo random numbers                .... off
   Inactive MOs                         .... canonical
   Orbital update algorithm             .... Taylor
   Preconditioner                       .... Diag
   Full preconditioner red. dimension   ....   250
 SOSCF                 CNVSOSCF           .... on
   Start iteration     SOSCFMaxIt         ....   150
   Startup grad/error  SOSCFStart         ....  0.003300
   Hessian update      SOSCFHessUp        .... L-BFGS
   Autom. constraints  SOSCFAutoConstrain .... off
 Level Shifting         CNVShift        .... on
   Level shift para.    LevelShift      ....    0.2500
   Turn off err/grad.   ShiftErr        ....    0.0010
 Zerner damping         CNVZerner       .... off
 Static damping         CNVDamp         .... on
   Fraction old density DampFac         ....    0.7000
   Max. Damping (<1)    DampMax         ....    0.9800
   Min. Damping (>=0)   DampMin         ....    0.0000
   Turn off err/grad.   DampErr         ....    0.1000

SCF Procedure:
 Maximum # iterations   MaxIter         ....   125
 SCF integral mode      SCFMode         .... Direct
   Integral package                     .... SHARK and LIBINT hybrid scheme
 Reset frequency        DirectResetFreq ....    20
 Integral Threshold     Thresh          ....  2.500e-11 Eh
 Primitive CutOff       TCut            ....  2.500e-12 Eh

Convergence Tolerance:
 Convergence Check Mode ConvCheckMode   .... Total+1el-Energy
 Convergence forced     ConvForced      .... 0
 Energy Change          TolE            ....  1.000e-08 Eh
 1-El. energy change                    ....  1.000e-05 Eh
 Orbital Gradient       TolG            ....  1.000e-05
 Orbital Rotation angle TolX            ....  1.000e-05
 DIIS Error             TolErr          ....  5.000e-07

------------------------------
INITIAL GUESS: MODEL POTENTIAL
------------------------------
Loading Hartree-Fock densities                     ... done
Calculating cut-offs                               ... done
Initializing the effective Hamiltonian             ... done
Setting up the integral package (SHARK)            ... done
Starting the Coulomb interaction                   ... done (   0.0 sec)
Making the grid                                    ... done (   0.0 sec)
Mapping shells                                     ... done
Starting the XC term evaluation                    ... done (   0.0 sec)
  promolecular density results
     # of electrons  =     39.998454815
     EX              =    -34.202438836
     EC              =     -1.792851716
     EX+EC           =    -35.995290552
Transforming the Hamiltonian                       ... done (   0.0 sec)
Diagonalizing the Hamiltonian                      ... done (   0.0 sec)
Back transforming the eigenvectors                 ... done (   0.0 sec)
Now organizing SCF variables                       ... done
                      ------------------
                      INITIAL GUESS DONE (   0.1 sec)
                      ------------------
             **** ENERGY FILE WAS UPDATED (3.en.tmp) ****
Finished Guess after   0.1 sec
Maximum memory used throughout the entire GUESS-calculation: 8.2 MB

-------------------------------------------------------------------------------------------
                                      ORCA LEAN-SCF
                              memory conserving SCF solver
-------------------------------------------------------------------------------------------

----------------------------------------D-I-I-S--------------------------------------------
Iteration    Energy (Eh)           Delta-E    RMSDP     MaxDP     DIISErr   Damp  Time(sec)
-------------------------------------------------------------------------------------------
               ***  Starting incremental Fock matrix formation  ***
    1    -284.0191427950065872     0.00e+00  5.79e-03  1.06e-01  2.58e-01  0.700   0.2
    2    -284.1337065358710561    -1.15e-01  3.46e-03  5.56e-02  1.01e-01  0.700   0.1
                               ***Turning on AO-DIIS***
    3    -284.1663822903823302    -3.27e-02  1.21e-03  1.84e-02  2.43e-02  0.700   0.1
    4    -284.1887671450334665    -2.24e-02  1.56e-03  2.15e-02  1.57e-02  0.000   0.1
    5    -284.2416760911008851    -5.29e-02  5.83e-04  1.02e-02  9.57e-03  0.000   0.1
                              *** Initializing SOSCF ***
---------------------------------------S-O-S-C-F--------------------------------------
Iteration    Energy (Eh)           Delta-E    RMSDP     MaxDP     MaxGrad    Time(sec)
--------------------------------------------------------------------------------------
    6    -284.2421869783507873    -5.11e-04  2.09e-04  3.46e-03  2.95e-03     0.1
               *** Restarting incremental Fock matrix formation ***
    7    -284.2422251911954163    -3.82e-05  1.72e-04  2.79e-03  6.48e-04     0.2
    8    -284.2422136391732010     1.16e-05  9.16e-05  2.10e-03  1.82e-03     0.1
    9    -284.2422302313746059    -1.66e-05  6.46e-05  1.09e-03  2.52e-04     0.1
   10    -284.2422289786170495     1.25e-06  3.52e-05  5.99e-04  3.00e-04     0.1
   11    -284.2422313093226194    -2.33e-06  1.12e-05  2.00e-04  3.68e-05     0.1
   12    -284.2422312576643435     5.17e-08  6.55e-06  1.28e-04  6.45e-05     0.1
   13    -284.2422313433023646    -8.56e-08  1.30e-06  1.80e-05  4.57e-06     0.1
   14    -284.2422313433562522    -5.39e-11  6.99e-07  1.16e-05  6.75e-06     0.1
                 **** Energy Check signals convergence ****

               *****************************************************
               *                     SUCCESS                       *
               *           SCF CONVERGED AFTER  14 CYCLES          *
               *****************************************************

             **** ENERGY FILE WAS UPDATED (3.en.tmp) ****

----------------
TOTAL SCF ENERGY
----------------

Total Energy       :       -284.24223134245619 Eh           -7734.62434 eV

Components:
Nuclear Repulsion  :        180.38590333363479 Eh            4908.54998 eV
Electronic Energy  :       -464.62813467609101 Eh          -12643.17431 eV
One Electron Energy:       -745.27906572525194 Eh          -20280.07440 eV
Two Electron Energy:        280.65093104916093 Eh            7636.90009 eV

Virial components:
Potential Energy   :       -567.01950421102697 Eh          -15429.38512 eV
Kinetic Energy     :        282.77727286857083 Eh            7694.76079 eV
Virial Ratio       :          2.00518060896134

DFT components:
N(Alpha)           :       20.000016323612 electrons
N(Beta)            :       20.000016323612 electrons
N(Total)           :       40.000032647224 electrons
E(X)               :      -34.932287343992 Eh       
E(C)               :       -1.783476926027 Eh       
E(XC)              :      -36.715764270019 Eh       

---------------
SCF CONVERGENCE
---------------

  Last Energy change         ...    5.3888e-11  Tolerance :   1.0000e-08
  Last MAX-Density change    ...    1.1588e-05  Tolerance :   1.0000e-07
  Last RMS-Density change    ...    6.9879e-07  Tolerance :   5.0000e-09
  Last DIIS Error            ...    2.9545e-03  Tolerance :   5.0000e-07
  Last Orbital Gradient      ...    6.7493e-06  Tolerance :   1.0000e-05
  Last Orbital Rotation      ...    4.4617e-06  Tolerance :   1.0000e-05


----------------
ORBITAL ENERGIES
----------------

  NO   OCC          E(Eh)            E(eV) 
   0   2.0000     -18.817869      -512.0603 
   1   2.0000     -18.759726      -510.4781 
   2   2.0000     -13.982256      -380.4765 
   3   2.0000     -10.037443      -273.1327 
   4   2.0000      -9.945527      -270.6315 
   5   2.0000      -1.026082       -27.9211 
   6   2.0000      -0.938260       -25.5314 
   7   2.0000      -0.806203       -21.9379 
   8   2.0000      -0.655424       -17.8350 
   9   2.0000      -0.550213       -14.9721 
  10   2.0000      -0.466085       -12.6828 
  11   2.0000      -0.432267       -11.7626 
  12   2.0000      -0.424789       -11.5591 
  13   2.0000      -0.387983       -10.5575 
  14   2.0000      -0.371737       -10.1155 
  15   2.0000      -0.353175        -9.6104 
  16   2.0000      -0.329795        -8.9742 
  17   2.0000      -0.278410        -7.5759 
  18   2.0000      -0.232643        -6.3305 
  19   2.0000      -0.186231        -5.0676 
  20   0.0000      -0.019285        -0.5248 
  21   0.0000       0.050706         1.3798 
  22   0.0000       0.073750         2.0068 
  23   0.0000       0.112417         3.0590 
  24   0.0000       0.139624         3.7994 
  25   0.0000       0.156716         4.2645 
  26   0.0000       0.204442         5.5632 
  27   0.0000       0.216333         5.8867 
  28   0.0000       0.272449         7.4137 
  29   0.0000       0.333705         9.0806 
  30   0.0000       0.502569        13.6756 
*Only the first 10 virtual orbitals were printed.

                    ********************************
                    * MULLIKEN POPULATION ANALYSIS *
                    ********************************

-----------------------
MULLIKEN ATOMIC CHARGES
-----------------------
   0 C :   -0.124189
   1 C :    0.498305
   2 H :    0.239964
   3 H :    0.255565
   4 N :   -0.592770
   5 O :   -0.452683
   6 H :    0.140635
   7 H :    0.123518
   8 H :    0.322309
   9 O :   -0.410654
Sum of atomic charges:   -0.0000000

--------------------------------
MULLIKEN REDUCED ORBITAL CHARGES
--------------------------------
  0 C s       :     3.193318  s :     3.193318
      pz      :     0.984778  p :     2.880537
      px      :     1.059118
      py      :     0.836641
      dz2     :     0.004660  d :     0.050334
      dxz     :     0.010293
      dyz     :     0.012295
      dx2y2   :     0.011271
      dxy     :     0.011816

  1 C s       :     2.975145  s :     2.975145
      pz      :     0.838582  p :     2.400537
      px      :     0.777323
      py      :     0.784632
      dz2     :     0.030957  d :     0.126013
      dxz     :     0.024297
      dyz     :     0.040840
      dx2y2   :     0.014560
      dxy     :     0.015359

  2 H s       :     0.735912  s :     0.735912
      pz      :     0.006841  p :     0.024124
      px      :     0.009843
      py      :     0.007440

  3 H s       :     0.719782  s :     0.719782
      pz      :     0.012102  p :     0.024653
      px      :     0.007228
      py      :     0.005323

  4 N s       :     3.602130  s :     3.602130
      pz      :     1.154341  p :     3.963573
      px      :     1.570657
      py      :     1.238575
      dz2     :     0.004841  d :     0.027068
      dxz     :     0.007173
      dyz     :     0.003903
      dx2y2   :     0.006926
      dxy     :     0.004225

  5 O s       :     3.823544  s :     3.823544
      pz      :     1.583814  p :     4.606300
      px      :     1.679962
      py      :     1.342524
      dz2     :     0.004498  d :     0.022838
      dxz     :     0.003404
      dyz     :     0.008427
      dx2y2   :     0.003337
      dxy     :     0.003172

  6 H s       :     0.848399  s :     0.848399
      pz      :     0.004088  p :     0.010966
      px      :     0.005093
      py      :     0.001784

  7 H s       :     0.864992  s :     0.864992
      pz      :     0.003682  p :     0.011490
      px      :     0.004873
      py      :     0.002935

  8 H s       :     0.639726  s :     0.639726
      pz      :     0.016056  p :     0.037965
      px      :     0.009309
      py      :     0.012600

  9 O s       :     3.859591  s :     3.859591
      pz      :     1.373292  p :     4.522793
      px      :     1.470802
      py      :     1.678699
      dz2     :     0.009503  d :     0.028271
      dxz     :     0.009335
      dyz     :     0.007702
      dx2y2   :     0.001020
      dxy     :     0.000711



                     *******************************
                     * LOEWDIN POPULATION ANALYSIS *
                     *******************************

----------------------
LOEWDIN ATOMIC CHARGES
----------------------
   0 C :   -0.091734
   1 C :    0.117617
   2 H :    0.125577
   3 H :    0.128757
   4 N :   -0.273576
   5 O :   -0.136162
   6 H :    0.083316
   7 H :    0.076412
   8 H :    0.185045
   9 O :   -0.215252

-------------------------------
LOEWDIN REDUCED ORBITAL CHARGES
-------------------------------
  0 C s       :     2.896232  s :     2.896232
      pz      :     1.046887  p :     3.083778
      px      :     1.081891
      py      :     0.955000
      dz2     :     0.009867  d :     0.111724
      dxz     :     0.023392
      dyz     :     0.029427
      dx2y2   :     0.025225
      dxy     :     0.023812

  1 C s       :     2.846389  s :     2.846389
      pz      :     1.032371  p :     2.736762
      px      :     0.814258
      py      :     0.890134
      dz2     :     0.076292  d :     0.299232
      dxz     :     0.054092
      dyz     :     0.100794
      dx2y2   :     0.031611
      dxy     :     0.036443

  2 H s       :     0.795210  s :     0.795210
      pz      :     0.021148  p :     0.079213
      px      :     0.035587
      py      :     0.022478

  3 H s       :     0.788850  s :     0.788850
      pz      :     0.044914  p :     0.082393
      px      :     0.022701
      py      :     0.014778

  4 N s       :     3.192179  s :     3.192179
      pz      :     1.175531  p :     4.025574
      px      :     1.564281
      py      :     1.285762
      dz2     :     0.012469  d :     0.055823
      dxz     :     0.011626
      dyz     :     0.010562
      dx2y2   :     0.012739
      dxy     :     0.008427

  5 O s       :     3.469438  s :     3.469438
      pz      :     1.587363  p :     4.616254
      px      :     1.660087
      py      :     1.368804
      dz2     :     0.007845  d :     0.050470
      dxz     :     0.005135
      dyz     :     0.018504
      dx2y2   :     0.008760
      dxy     :     0.010225

  6 H s       :     0.876976  s :     0.876976
      pz      :     0.014981  p :     0.039708
      px      :     0.019224
      py      :     0.005503

  7 H s       :     0.883936  s :     0.883936
      pz      :     0.011774  p :     0.039652
      px      :     0.017881
      py      :     0.009997

  8 H s       :     0.699482  s :     0.699482
      pz      :     0.051843  p :     0.115473
      px      :     0.026253
      py      :     0.037378

  9 O s       :     3.553108  s :     3.553108
      pz      :     1.477885  p :     4.603738
      px      :     1.461138
      py      :     1.664715
      dz2     :     0.025638  d :     0.058406
      dxz     :     0.015460
      dyz     :     0.014301
      dx2y2   :     0.001529
      dxy     :     0.001478



                      *****************************
                      * MAYER POPULATION ANALYSIS *
                      *****************************

  NA   - Mulliken gross atomic population
  ZA   - Total nuclear charge
  QA   - Mulliken gross atomic charge
  VA   - Mayer's total valence
  BVA  - Mayer's bonded valence
  FA   - Mayer's free valence

  ATOM       NA         ZA         QA         VA         BVA        FA
  0 C      6.1242     6.0000    -0.1242     3.8400     3.8400    -0.0000
  1 C      5.5017     6.0000     0.4983     3.9923     3.9923    -0.0000
  2 H      0.7600     1.0000     0.2400     0.9197     0.9197    -0.0000
  3 H      0.7444     1.0000     0.2556     0.9347     0.9347     0.0000
  4 N      7.5928     7.0000    -0.5928     2.8382     2.8382     0.0000
  5 O      8.4527     8.0000    -0.4527     2.0479     2.0479    -0.0000
  6 H      0.8594     1.0000     0.1406     0.9400     0.9400     0.0000
  7 H      0.8765     1.0000     0.1235     0.9423     0.9423     0.0000
  8 H      0.6777     1.0000     0.3223     0.9134     0.9134    -0.0000
  9 O      8.4107     8.0000    -0.4107     2.1252     2.1252    -0.0000

  Mayer bond orders larger than 0.100000
B(  0-C ,  1-C ) :   0.9462 B(  0-C ,  4-N ) :   1.0239 B(  0-C ,  6-H ) :   0.9250 
B(  0-C ,  7-H ) :   0.9192 B(  1-C ,  5-O ) :   1.1007 B(  1-C ,  9-O ) :   1.9155 
B(  2-H ,  4-N ) :   0.9116 B(  3-H ,  4-N ) :   0.8839 B(  5-O ,  8-H ) :   0.8516 


-------
TIMINGS
-------

Total SCF time: 0 days 0 hours 0 min 2 sec 

Total time                  ....       2.122 sec
Sum of individual times     ....       1.965 sec  ( 92.6%)

SCF preparation             ....       0.030 sec  (  1.4%)
Fock matrix formation       ....       1.920 sec  ( 90.5%)
  Startup                   ....       0.000 sec  (  0.0% of F)
  Split-RI-J                ....       0.430 sec  ( 22.4% of F)
  XC integration            ....       1.608 sec  ( 83.8% of F)
    Basis function eval.    ....       0.545 sec  ( 33.9% of XC)
    Density eval.           ....       0.280 sec  ( 17.4% of XC)
    XC-Functional eval.     ....       0.427 sec  ( 26.5% of XC)
    XC-Potential eval.      ....       0.309 sec  ( 19.2% of XC)
Diagonalization             ....       0.000 sec  (  0.0%)
Density matrix formation    ....       0.002 sec  (  0.1%)
Total Energy calculation    ....       0.000 sec  (  0.0%)
Population analysis         ....       0.001 sec  (  0.0%)
Orbital Transformation      ....       0.001 sec  (  0.1%)
Orbital Orthonormalization  ....       0.000 sec  (  0.0%)
DIIS solution               ....       0.006 sec  (  0.3%)
SOSCF solution              ....       0.004 sec  (  0.2%)
Finished LeanSCF after   2.1 sec

Maximum memory used throughout the entire LEANSCF-calculation: 10.2 MB



-------------------------------------------------------------------------------
                          DFT DISPERSION CORRECTION                            
-------------------------------------------------------------------------------
Active option DFTDOPT                   ...         2   
Final C6-coefficient scaling factor     ...     1.250
Final VDW-radii scaling factor          ...     1.100
Damping factor alpha                    ...    20.000
-------------------------   ----------------
Dispersion correction           -0.006731145
-------------------------   ----------------


-------------------------   --------------------
FINAL SINGLE POINT ENERGY      -284.248962487181
-------------------------   --------------------

------------------------------------------------------------------------------
                         ORCA SCF GRADIENT CALCULATION
------------------------------------------------------------------------------

Nuc. rep. gradient        (SHARK) ... done (  0.0 sec)
HCore & Overlap gradient  (SHARK) ... done (  0.0 sec)
Split-RIJ-J gradient      (SHARK) ... done (  0.1 sec)
XC gradient                       ... done (  0.7 sec)
Dispersion correction             ... done (  0.0 sec)

-------------------
DISPERSION GRADIENT
-------------------

   1   C   :   -0.000162923    0.000230883    0.000531835
   2   C   :   -0.000271784    0.000896877   -0.000611709
   3   H   :   -0.000068744    0.000490178    0.000325006
   4   H   :    0.000299727   -0.000889870   -0.000055820
   5   N   :    0.000143179   -0.001155381   -0.000212592
   6   O   :    0.000118859   -0.000177232    0.000324879
   7   H   :   -0.000652839   -0.000086092    0.000269350
   8   H   :    0.000612349    0.000164527   -0.000151378
   9   H   :   -0.000162540    0.000247654    0.000268962
  10   O   :    0.000144715    0.000278456   -0.000688533

Difference to translation invariance:
           :   -0.0000000000    0.0000000000   -0.0000000000

Difference to rotation invariance:
           :    0.0000000000   -0.0000000000   -0.0000000000

Norm of the Dispersion gradient    ...    0.0024629338
RMS gradient                       ...    0.0004496681
MAX gradient                       ...    0.0011553806

------------------
CARTESIAN GRADIENT
------------------

   1   C   :    0.000381356   -0.004377310    0.003196547
   2   C   :   -0.001421997   -0.000358051    0.011337035
   3   H   :    0.002834945   -0.000124241    0.001685222
   4   H   :    0.002794542   -0.000566800   -0.002416314
   5   N   :   -0.003643900   -0.007595160   -0.003304685
   6   O   :   -0.011365854    0.016135299    0.019737919
   7   H   :   -0.002873832    0.003450291    0.004762326
   8   H   :    0.002282405    0.003490396    0.003483155
   9   H   :    0.002544868   -0.002213510   -0.005490514
  10   O   :    0.008467466   -0.007840914   -0.032990690

Difference to translation invariance:
           :    0.0000000000    0.0000000000   -0.0000000000

Difference to rotation invariance:
           :    0.0002100466   -0.0000653489    0.0000954675

Norm of the Cartesian gradient     ...    0.0488008081
RMS gradient                       ...    0.0089097678
MAX gradient                       ...    0.0329906902

-------
TIMINGS
-------

Total SCF gradient time     ....        0.831 sec

Densities                   ....       0.000 sec  (  0.0%)
One electron gradient       ....       0.022 sec  (  2.7%)
RI-J Coulomb gradient       ....       0.150 sec  ( 18.0%)
XC gradient                 ....       0.659 sec  ( 79.3%)

Maximum memory used throughout the entire SCFGRAD-calculation: 13.3 MB
------------------------------------------------------------------------------
                         ORCA GEOMETRY RELAXATION STEP
------------------------------------------------------------------------------

Reading the OPT-File                    .... done
Getting information on internals        .... done
Copying old internal coords+grads       .... done
Making the new internal coordinates     .... (2022 redundants) done
Validating the new internal coordinates .... (2022 redundants) done
Calculating the B-matrix                .... done
Calculating the G,G- and P matrices     .... done
Transforming gradient to internals      .... done
Projecting the internal gradient        .... done
Number of atoms                         ....  10
Number of internal coordinates          ....  35
Current Energy                          ....  -284.248962487 Eh
Current gradient norm                   ....     0.048800808 Eh/bohr
Maximum allowed component of the step   ....  0.300
Current trust radius                    ....  0.300
Evaluating the initial hessian          ....  (Almloef) done
Projecting the Hessian                  .... done
Forming the augmented Hessian           .... done
Diagonalizing the augmented Hessian     .... done
Last element of RFO vector              ....  0.994288436
Lowest eigenvalues of augmented Hessian:
 -0.002998329  0.011822940  0.016718141  0.018274285  0.032278860
Length of the computed step             ....  0.107339393
The final length of the internal step   ....  0.107339393
Converting the step to Cartesian space:
 Initial RMS(Int)=    0.0181436689
Transforming coordinates:
 Iter   0:  RMS(Cart)=    0.0230213350 RMS(Int)=    0.0182454340
done
Storing new coordinates                 .... done

                                .--------------------.
          ----------------------|Geometry convergence|-------------------------
          Item                value                   Tolerance       Converged
          ---------------------------------------------------------------------
          RMS gradient        0.0076435555            0.0001000000      NO
          MAX gradient        0.0346411050            0.0003000000      NO
          RMS step            0.0181436689            0.0020000000      NO
          MAX step            0.0504644239            0.0040000000      NO
          -------------------------------------------------------------------------
          ........................................................
          Max(Bonds)      0.0267      Max(Angles)    1.66
          Max(Dihed)        1.72      Max(Improp)    0.00
          ---------------------------------------------------------------------

The optimization has not yet converged - more geometry cycles are needed


    ---------------------------------------------------------------------------
                         Redundant Internal Coordinates
                            (Angstroem and degrees)

        Definition                    Value    dE/dq     Step     New-Value
    ----------------------------------------------------------------------------
     1. B(C   1,C   0)                1.5119 -0.007961  0.0118    1.5236   
     2. B(N   4,H   2)                1.0124 -0.002985  0.0037    1.0160   
     3. B(N   4,C   0)                1.4497 -0.008063  0.0104    1.4601   
     4. B(N   4,H   3)                1.0161 -0.003664  0.0041    1.0202   
     5. B(O   5,C   1)                1.3363 -0.020068  0.0155    1.3518   
     6. B(H   6,C   0)                1.0952 -0.005206  0.0077    1.1029   
     7. B(H   7,C   0)                1.1023 -0.004884  0.0074    1.1097   
     8. B(H   8,O   5)                0.9708 -0.002436  0.0026    0.9733   
     9. B(O   9,H   3)                2.2731 -0.001752  0.0267    2.2998   
    10. B(O   9,C   1)                1.2013 -0.034641  0.0164    1.2177   
    11. A(N   4,C   0,H   7)          114.03 -0.001848    0.21    114.24   
    12. A(C   1,C   0,H   7)          105.80  0.000458   -0.30    105.51   
    13. A(C   1,C   0,N   4)          110.84  0.002478    0.20    111.04   
    14. A(H   6,C   0,H   7)          107.35  0.002134   -0.78    106.57   
    15. A(C   1,C   0,H   6)          108.66  0.000823   -0.27    108.39   
    16. A(N   4,C   0,H   6)          109.93 -0.003775    0.83    110.76   
    17. A(C   0,C   1,O   9)          124.90  0.001981   -0.00    124.90   
    18. A(C   0,C   1,O   5)          112.03  0.004316   -0.67    111.36   
    19. A(O   5,C   1,O   9)          123.05 -0.006308    0.68    123.73   
    20. A(C   0,N   4,H   3)          109.25  0.001389   -0.14    109.11   
    21. A(C   0,N   4,H   2)          111.58  0.002116   -0.57    111.01   
    22. A(H   2,N   4,H   3)          108.50 -0.000035   -0.48    108.02   
    23. A(C   1,O   5,H   8)          110.41  0.010881   -1.66    108.75   
    24. D(O   5,C   1,C   0,N   4)   -161.80  0.001032   -1.30   -163.11   
    25. D(O   9,C   1,C   0,N   4)     19.70  0.001600   -1.45     18.25   
    26. D(O   9,C   1,C   0,H   6)    140.60 -0.001001   -0.47    140.13   
    27. D(O   5,C   1,C   0,H   6)    -40.91 -0.001568   -0.32    -41.23   
    28. D(O   5,C   1,C   0,H   7)     74.10  0.001515   -1.49     72.61   
    29. D(H   2,N   4,C   0,H   6)     96.09 -0.000994   -0.67     95.42   
    30. D(H   2,N   4,C   0,C   1)   -143.76 -0.000839   -0.34   -144.10   
    31. D(H   3,N   4,C   0,H   6)   -143.94  0.001211   -1.72   -145.66   
    32. D(H   3,N   4,C   0,C   1)    -23.80  0.001367   -1.38    -25.18   
    33. D(H   2,N   4,C   0,H   7)    -24.50  0.000280   -0.43    -24.93   
    34. D(H   8,O   5,C   1,O   9)     -0.31 -0.000684    0.79      0.49   
    35. D(H   8,O   5,C   1,C   0)   -178.83 -0.000270    0.66   -178.17   
    ----------------------------------------------------------------------------

Geometry step timings:
Preparation and reading OPT file:      0.000 s ( 2.637 %)
Internal coordinates            :      0.000 s ( 1.978 %)
B/P matrices and projection     :      0.000 s (30.549 %)
Hessian update/contruction      :      0.000 s (12.527 %)
Making the step                 :      0.000 s (22.418 %)
Converting the step to Cartesian:      0.000 s ( 4.615 %)
Storing new data                :      0.000 s ( 2.637 %)
Checking convergence            :      0.000 s ( 2.418 %)
Final printing                  :      0.000 s (20.220 %)
Total time                      :      0.000 s

Time for energy+gradient        :      3.308 s
Time for complete geometry iter :      3.318 s

         *************************************************************
         *                GEOMETRY OPTIMIZATION CYCLE   2            *
         *************************************************************
---------------------------------
CARTESIAN COORDINATES (ANGSTROEM)
---------------------------------
  C     -5.035853   -1.345013   -0.099607
  C     -4.712016   -2.286549    1.053656
  H     -6.033039    0.451965   -0.164869
  H     -5.628671   -0.046167    1.352573
  N     -5.305735    0.005145    0.386205
  O     -4.112359   -3.415533    0.614082
  H     -4.183258   -1.345685   -0.799303
  H     -5.886107   -1.814634   -0.636312
  H     -3.949453   -4.000034    1.375136
  O     -4.977797   -2.073179    2.222666

----------------------------
CARTESIAN COORDINATES (A.U.)
----------------------------
  NO LB      ZA    FRAG     MASS         X           Y           Z
   0 C     6.0000    0    12.011   -9.516383   -2.541706   -0.188229
   1 C     6.0000    0    12.011   -8.904419   -4.320951    1.991121
   2 H     1.0000    0     1.008  -11.400792    0.854089   -0.311558
   3 H     1.0000    0     1.008  -10.636647   -0.087243    2.555993
   4 N     7.0000    0    14.007  -10.026386    0.009723    0.729822
   5 O     8.0000    0    15.999   -7.771232   -6.454423    1.160447
   6 H     1.0000    0     1.008   -7.905211   -2.542976   -1.510464
   7 H     1.0000    0     1.008  -11.123130   -3.429161   -1.202455
   8 H     1.0000    0     1.008   -7.463385   -7.558969    2.598631
   9 O     8.0000    0    15.999   -9.406674   -3.917741    4.200230

--------------------------------
INTERNAL COORDINATES (ANGSTROEM)
--------------------------------
 C      0   0   0     0.000000000000     0.00000000     0.00000000
 C      1   0   0     1.523605879985     0.00000000     0.00000000
 H      1   2   0     2.056153684047   131.84954779     0.00000000
 H      3   1   2     1.647507308726    65.63730542    13.07810696
 N      3   1   2     1.016022411128    41.52051900    47.28942814
 O      2   1   3     1.351820638057   111.36150266   175.59737496
 H      1   2   3     1.102948416894   108.39151517   143.17187358
 H      1   2   3     1.109742155996   105.51027036   257.01148487
 H      6   2   1     0.973335948327   108.75451592   181.82987933
 O      2   1   3     1.217682562169   124.88969016   356.95818470

---------------------------
INTERNAL COORDINATES (A.U.)
---------------------------
 C      0   0   0     0.000000000000     0.00000000     0.00000000
 C      1   0   0     2.879197849204     0.00000000     0.00000000
 H      1   2   0     3.885567352102   131.84954779     0.00000000
 H      3   1   2     3.113337617127    65.63730542    13.07810696
 N      3   1   2     1.920004102959    41.52051900    47.28942814
 O      2   1   3     2.554570788110   111.36150266   175.59737496
 H      1   2   3     2.084270447771   108.39151517   143.17187358
 H      1   2   3     2.097108754101   105.51027036   257.01148487
 H      6   2   1     1.839338378639   108.75451592   181.82987933
 O      2   1   3     2.301086560551   124.88969016   356.95818470

------------------------------------------------------------------------------
                   ___                                                        
                  /   \      - P O W E R E D   B Y -                         
                 /     \                                                     
                 |  |  |   _    _      __       _____    __    __             
                 |  |  |  | |  | |    /  \     |  _  \  |  |  /  |          
                  \  \/   | |  | |   /    \    | | | |  |  | /  /          
                 / \  \   | |__| |  /  /\  \   | |_| |  |  |/  /          
                |  |  |   |  __  | /  /__\  \  |    /   |      \           
                |  |  |   | |  | | |   __   |  |    \   |  |\   \          
                \     /   | |  | | |  |  |  |  | |\  \  |  | \   \       
                 \___/    |_|  |_| |__|  |__|  |_| \__\ |__|  \__/        
                                                                              
                      - O R C A' S   B I G   F R I E N D -                    
                                      &                                       
                       - I N T E G R A L  F E E D E R -                       
                                                                              
 v1 FN, 2020, v2 2021, v3 2022-2024                                           
------------------------------------------------------------------------------


----------------------
SHARK INTEGRAL PACKAGE
----------------------

Number of atoms                             ...     10
Number of basis functions                   ...     95
Number of shells                            ...     45
Maximum angular momentum                    ...      2
Integral batch strategy                     ... SHARK/LIBINT Hybrid
RI-J (if used) integral strategy            ... SPLIT-RIJ (Revised 2003 algorithm where possible)
Printlevel                                  ...      1
Contraction scheme used                     ... SEGMENTED contraction
Prescreening option                         ... SCHWARTZ
   Thresh                                   ... 2.500e-11
   Tcut                                     ... 2.500e-12
   Tpresel                                  ... 2.500e-12 
Coulomb Range Separation                    ... NOT USED
Exchange Range Separation                   ... NOT USED
Multipole approximations                    ... NOT USED
Finite Nucleus Model                        ... NOT USED
CABS basis                                  ... NOT available
Auxiliary Coulomb fitting basis             ... AVAILABLE
   # of basis functions in Aux-J            ...    300
   # of shells in Aux-J                     ...    100
   Maximum angular momentum in Aux-J        ...      4
Auxiliary J/K fitting basis                 ... NOT available
Auxiliary Correlation fitting basis         ... NOT available
Auxiliary 'external' fitting basis          ... NOT available

Checking pre-screening integrals            ... done (  0.0 sec) Dimension = 45
   => SHARK Basis and OBASIS are compatible. Storing Pre-screening
Shell pair information
Shell pair cut-off parameter TPreSel        ...   2.5e-12
Total number of shell pairs                 ...      1035
Shell pairs after pre-screening             ...      1001
Total number of primitive shell pairs       ...      5170
Primitive shell pairs kept                  ...      3722
          la=0 lb=0:    311 shell pairs
          la=1 lb=0:    361 shell pairs
          la=1 lb=1:    116 shell pairs
          la=2 lb=0:    123 shell pairs
          la=2 lb=1:     75 shell pairs
          la=2 lb=2:     15 shell pairs

Checking whether 4 symmetric matrices of dimension 95 fit in memory
:Max Core in MB      =   4096.00
 MB in use           =      4.76
 MB left             =   4091.24
 MB needed           =      0.14
 Data fit in memory  = YES
Calculating RI/J V-Matrix + Cholesky decomp.... done (  0.0 sec)
Calculating Nuclear repulsion               ... done (  0.0 sec) ENN=    178.777287243234 Eh

Diagonalization of the overlap matrix:
Smallest eigenvalue                        ... 4.617e-03
Time for diagonalization                   ...    0.001 sec
Threshold for overlap eigenvalues          ... 1.000e-07
Number of eigenvalues below threshold      ... 0
Time for construction of square roots      ...    0.000 sec
Total time needed                          ...    0.001 sec

-------------------
DFT GRID GENERATION
-------------------

General Integration Accuracy     IntAcc      ... 4.388
Radial Grid Type                 RadialGrid  ... OptM3 with GC (2021)
Angular Grid (max. ang.)         AngularGrid ... 4 (Lebedev-302)
Angular grid pruning method      GridPruning ... 4 (adaptive)
Weight generation scheme         WeightScheme... mBecke (2022)
Basis function cutoff            BFCut       ... 1.0000e-11
Integration weight cutoff        WCut        ... 1.0000e-14
Partially contracted basis set               ... off
Rotationally invariant grid construction     ... off
Angular grids for H and He will be reduced by one unit

Total number of grid points                  ...    46641
Total number of batches                      ...      733
Average number of points per batch           ...       63
Average number of grid points per atom       ...     4664
Grids setup in   0.1 sec
Initializing property integral containers    ... done (  0.0 sec)

SHARK setup successfully completed in   0.2 seconds

Maximum memory used throughout the entire STARTUP-calculation: 19.9 MB
Occupation numbers will be reassigned to an Aufbau configuration
             **** ENERGY FILE WAS UPDATED (3.en.tmp) ****
Finished Guess after   0.0 sec
Maximum memory used throughout the entire GUESS-calculation: 7.8 MB
----------------------------------------D-I-I-S--------------------------------------------
Iteration    Energy (Eh)           Delta-E    RMSDP     MaxDP     DIISErr   Damp  Time(sec)
-------------------------------------------------------------------------------------------
               ***  Starting incremental Fock matrix formation  ***
    1    -284.2431649856603713     0.00e+00  2.04e-04  2.57e-03  1.06e-02  0.700   0.2
    2    -284.2434015973159376    -2.37e-04  1.91e-04  2.39e-03  8.18e-03  0.700   0.1
                               ***Turning on AO-DIIS***
    3    -284.2435729111873570    -1.71e-04  1.47e-04  1.75e-03  5.93e-03  0.700   0.1
    4    -284.2436914127749219    -1.19e-04  3.62e-04  4.26e-03  4.21e-03  0.000   0.1
                              *** Initializing SOSCF ***
---------------------------------------S-O-S-C-F--------------------------------------
Iteration    Energy (Eh)           Delta-E    RMSDP     MaxDP     MaxGrad    Time(sec)
--------------------------------------------------------------------------------------
    5    -284.2439684462116247    -2.77e-04  2.45e-05  3.62e-04  3.45e-04     0.1
               *** Restarting incremental Fock matrix formation ***
    6    -284.2439691142566858    -6.68e-07  1.43e-05  2.22e-04  5.23e-05     0.2
    7    -284.2439690881448655     2.61e-08  8.41e-06  1.31e-04  6.24e-05     0.1
    8    -284.2439691950120846    -1.07e-07  5.62e-06  9.95e-05  3.89e-05     0.1
    9    -284.2439691601580307     3.49e-08  4.03e-06  6.71e-05  7.65e-05     0.1
   10    -284.2439692032305629    -4.31e-08  9.95e-07  1.65e-05  3.38e-06     0.1
   11    -284.2439692021195015     1.11e-09  6.23e-07  1.21e-05  6.42e-06     0.1
                 **** Energy Check signals convergence ****

               *****************************************************
               *                     SUCCESS                       *
               *           SCF CONVERGED AFTER  11 CYCLES          *
               *****************************************************

             **** ENERGY FILE WAS UPDATED (3.en.tmp) ****

----------------
TOTAL SCF ENERGY
----------------

Total Energy       :       -284.24396920350608 Eh           -7734.67163 eV

Components:
Nuclear Repulsion  :        178.77728724323379 Eh            4864.77731 eV
Electronic Energy  :       -463.02125644673987 Eh          -12599.44893 eV
One Electron Energy:       -742.10154626778717 Eh          -20193.60970 eV
Two Electron Energy:        279.08028982104730 Eh            7594.16077 eV

Virial components:
Potential Energy   :       -566.84936168067884 Eh          -15424.75531 eV
Kinetic Energy     :        282.60539247717270 Eh            7690.08369 eV
Virial Ratio       :          2.00579810849316

DFT components:
N(Alpha)           :       20.000014454807 electrons
N(Beta)            :       20.000014454807 electrons
N(Total)           :       40.000028909614 electrons
E(X)               :      -34.889181178511 Eh       
E(C)               :       -1.782752096135 Eh       
E(XC)              :      -36.671933274646 Eh       

---------------
SCF CONVERGENCE
---------------

  Last Energy change         ...   -1.1111e-09  Tolerance :   1.0000e-08
  Last MAX-Density change    ...    1.2069e-05  Tolerance :   1.0000e-07
  Last RMS-Density change    ...    6.2281e-07  Tolerance :   5.0000e-09
  Last DIIS Error            ...    3.4512e-04  Tolerance :   5.0000e-07
  Last Orbital Gradient      ...    6.4156e-06  Tolerance :   1.0000e-05
  Last Orbital Rotation      ...    6.6636e-06  Tolerance :   1.0000e-05


Total SCF time: 0 days 0 hours 0 min 1 sec 
Finished LeanSCF after   1.7 sec

Maximum memory used throughout the entire LEANSCF-calculation: 10.2 MB



-------------------------------------------------------------------------------
                          DFT DISPERSION CORRECTION                            
-------------------------------------------------------------------------------
-------------------------   ----------------
Dispersion correction           -0.006859883
-------------------------   ----------------


-------------------------   --------------------
FINAL SINGLE POINT ENERGY      -284.250829086321
-------------------------   --------------------

------------------------------------------------------------------------------
                         ORCA SCF GRADIENT CALCULATION
------------------------------------------------------------------------------

Nuc. rep. gradient        (SHARK) ... done (  0.0 sec)
HCore & Overlap gradient  (SHARK) ... done (  0.0 sec)
Split-RIJ-J gradient      (SHARK) ... done (  0.2 sec)
XC gradient                       ... done (  0.7 sec)
Dispersion correction             ... done (  0.0 sec)

-------------------
DISPERSION GRADIENT
-------------------

   1   C   :   -0.000165733    0.000218747    0.000575969
   2   C   :   -0.000272620    0.000875159   -0.000673356
   3   H   :   -0.000060055    0.000463476    0.000329774
   4   H   :    0.000291485   -0.000785946   -0.000082277
   5   N   :    0.000171009   -0.001193266   -0.000294831
   6   O   :    0.000098915   -0.000143914    0.000355976
   7   H   :   -0.000703265   -0.000044275    0.000326665
   8   H   :    0.000645736    0.000198622   -0.000099846
   9   H   :   -0.000138583    0.000221838    0.000261164
  10   O   :    0.000133110    0.000189558   -0.000699238

Difference to translation invariance:
           :    0.0000000000    0.0000000000    0.0000000000

Difference to rotation invariance:
           :    0.0000000000   -0.0000000000   -0.0000000000

Norm of the Dispersion gradient    ...    0.0024866492
RMS gradient                       ...    0.0004539980
MAX gradient                       ...    0.0011932656

------------------
CARTESIAN GRADIENT
------------------

   1   C   :    0.001186271   -0.002091378    0.000979469
   2   C   :    0.001175272   -0.003078980   -0.002676245
   3   H   :    0.000821031    0.000990210    0.000563900
   4   H   :    0.001226443    0.000024452    0.000492679
   5   N   :   -0.002543299   -0.002402279   -0.001952121
   6   O   :   -0.003889082    0.005800605    0.008182725
   7   H   :    0.000319754    0.001430759    0.000727005
   8   H   :   -0.000436434    0.001139933    0.000824213
   9   H   :    0.001613980   -0.001936412   -0.003071142
  10   O   :    0.000526063    0.000123090   -0.004070482

Difference to translation invariance:
           :   -0.0000000000    0.0000000000    0.0000000000

Difference to rotation invariance:
           :    0.0002177005   -0.0000466666    0.0000818874

Norm of the Cartesian gradient     ...    0.0140626323
RMS gradient                       ...    0.0025674736
MAX gradient                       ...    0.0081827249

-------
TIMINGS
-------

Total SCF gradient time     ....        0.825 sec

Densities                   ....       0.000 sec  (  0.0%)
One electron gradient       ....       0.023 sec  (  2.7%)
RI-J Coulomb gradient       ....       0.150 sec  ( 18.2%)
XC gradient                 ....       0.652 sec  ( 79.0%)

Maximum memory used throughout the entire SCFGRAD-calculation: 13.3 MB
------------------------------------------------------------------------------
                         ORCA GEOMETRY RELAXATION STEP
------------------------------------------------------------------------------

Reading the OPT-File                    .... done
Getting information on internals        .... done
Copying old internal coords+grads       .... done
Making the new internal coordinates     .... (2022 redundants) done
Validating the new internal coordinates .... (2022 redundants) done
Calculating the B-matrix                .... done
Calculating the G,G- and P matrices     .... done
Transforming gradient to internals      .... done
Projecting the internal gradient        .... done
Number of atoms                         ....  10
Number of internal coordinates          ....  35
Current Energy                          ....  -284.250829086 Eh
Current gradient norm                   ....     0.014062632 Eh/bohr
Maximum allowed component of the step   ....  0.300
Current trust radius                    ....  0.300
Updating the Hessian (BFGS)             .... done
Forming the augmented Hessian           .... done
Diagonalizing the augmented Hessian     .... done
Last element of RFO vector              ....  0.996491387
Lowest eigenvalues of augmented Hessian:
 -0.000516842  0.011791855  0.016351052  0.018289055  0.031899597
Length of the computed step             ....  0.083990068
The final length of the internal step   ....  0.083990068
Converting the step to Cartesian space:
 Initial RMS(Int)=    0.0141969127
Transforming coordinates:
 Iter   0:  RMS(Cart)=    0.0169542365 RMS(Int)=    0.0142536327
done
Storing new coordinates                 .... done
The predicted energy change is          ....    -0.000260244
Previously predicted energy change      ....    -0.001516437
Actually observed energy change         ....    -0.001866599
Ratio of predicted to observed change   ....     1.230910739
New trust radius                        ....     0.450000000

                                .--------------------.
          ----------------------|Geometry convergence|-------------------------
          Item                value                   Tolerance       Converged
          ---------------------------------------------------------------------
          Energy change      -0.0018665991            0.0000050000      NO
          RMS gradient        0.0018726245            0.0001000000      NO
          MAX gradient        0.0070635221            0.0003000000      NO
          RMS step            0.0141969127            0.0020000000      NO
          MAX step            0.0388180466            0.0040000000      NO
          -------------------------------------------------------------------------
          ........................................................
          Max(Bonds)      0.0205      Max(Angles)    1.58
          Max(Dihed)        1.86      Max(Improp)    0.00
          ---------------------------------------------------------------------

The optimization has not yet converged - more geometry cycles are needed


    ---------------------------------------------------------------------------
                         Redundant Internal Coordinates
                            (Angstroem and degrees)

        Definition                    Value    dE/dq     Step     New-Value
    ----------------------------------------------------------------------------
     1. B(C   1,C   0)                1.5236 -0.001266  0.0038    1.5274   
     2. B(N   4,H   2)                1.0160 -0.000457  0.0010    1.0171   
     3. B(N   4,C   0)                1.4601 -0.000954  0.0028    1.4629   
     4. B(N   4,H   3)                1.0202 -0.000159  0.0004    1.0206   
     5. B(O   5,C   1)                1.3518 -0.005906  0.0074    1.3592   
     6. B(H   6,C   0)                1.1029 -0.000217  0.0010    1.1040   
     7. B(H   7,C   0)                1.1097 -0.000542  0.0017    1.1114   
     8. B(H   8,O   5)                0.9733 -0.000963  0.0016    0.9749   
     9. B(O   9,H   3)                2.2999 -0.000726  0.0205    2.3204   
[...]
----------------

Total Energy       :       -284.24447492620334 Eh           -7734.68539 eV

Components:
Nuclear Repulsion  :        178.26010844732585 Eh            4850.70416 eV
Electronic Energy  :       -462.50458337352921 Eh          -12585.38954 eV
One Electron Energy:       -741.08731267707105 Eh          -20166.01100 eV
Two Electron Energy:        278.58272930354184 Eh            7580.62146 eV

Virial components:
Potential Energy   :       -566.81949455468009 Eh          -15423.94258 eV
Kinetic Energy     :        282.57501962847675 Eh            7689.25720 eV
Virial Ratio       :          2.00590800736711

DFT components:
N(Alpha)           :       20.000010475468 electrons
N(Beta)            :       20.000010475468 electrons
N(Total)           :       40.000020950936 electrons
E(X)               :      -34.877715027997 Eh       
E(C)               :       -1.782336810572 Eh       
E(XC)              :      -36.660051838569 Eh       

---------------
SCF CONVERGENCE
---------------

  Last Energy change         ...   -2.2229e-09  Tolerance :   1.0000e-08
  Last MAX-Density change    ...    1.4676e-05  Tolerance :   1.0000e-07
  Last RMS-Density change    ...    1.1200e-06  Tolerance :   5.0000e-09
  Last DIIS Error            ...    7.4922e-04  Tolerance :   5.0000e-07
  Last Orbital Gradient      ...    7.5730e-06  Tolerance :   1.0000e-05
  Last Orbital Rotation      ...    7.9968e-06  Tolerance :   1.0000e-05


----------------
ORBITAL ENERGIES
----------------

  NO   OCC          E(Eh)            E(eV) 
   0   2.0000     -18.818071      -512.0657 
   1   2.0000     -18.762858      -510.5633 
   2   2.0000     -13.990538      -380.7019 
   3   2.0000     -10.041023      -273.2301 
   4   2.0000      -9.951708      -270.7997 
   5   2.0000      -1.015298       -27.6277 
   6   2.0000      -0.931385       -25.3443 
   7   2.0000      -0.807747       -21.9799 
   8   2.0000      -0.652984       -17.7686 
   9   2.0000      -0.539366       -14.6769 
  10   2.0000      -0.463239       -12.6054 
  11   2.0000      -0.427904       -11.6439 
  12   2.0000      -0.424516       -11.5517 
  13   2.0000      -0.386087       -10.5060 
  14   2.0000      -0.373579       -10.1656 
  15   2.0000      -0.348640        -9.4870 
  16   2.0000      -0.333953        -9.0873 
  17   2.0000      -0.276186        -7.5154 
  18   2.0000      -0.232347        -6.3225 
  19   2.0000      -0.194045        -5.2802 
  20   0.0000      -0.025778        -0.7014 
  21   0.0000       0.053078         1.4443 
  22   0.0000       0.068382         1.8608 
  23   0.0000       0.110057         2.9948 
  24   0.0000       0.138255         3.7621 
  25   0.0000       0.139515         3.7964 
  26   0.0000       0.185580         5.0499 
  27   0.0000       0.200002         5.4423 
  28   0.0000       0.260113         7.0780 
  29   0.0000       0.322781         8.7833 
  30   0.0000       0.502992        13.6871 
*Only the first 10 virtual orbitals were printed.

                    ********************************
                    * MULLIKEN POPULATION ANALYSIS *
                    ********************************

-----------------------
MULLIKEN ATOMIC CHARGES
-----------------------
   0 C :   -0.136325
   1 C :    0.514169
   2 H :    0.239910
   3 H :    0.253398
   4 N :   -0.577210
   5 O :   -0.461662
   6 H :    0.143005
   7 H :    0.118950
   8 H :    0.322049
   9 O :   -0.416284
Sum of atomic charges:    0.0000000

--------------------------------
MULLIKEN REDUCED ORBITAL CHARGES
--------------------------------
  0 C s       :     3.205069  s :     3.205069
      pz      :     0.989596  p :     2.881876
      px      :     1.056863
      py      :     0.835417
      dz2     :     0.004592  d :     0.049380
      dxz     :     0.010017
      dyz     :     0.012427
      dx2y2   :     0.010068
      dxy     :     0.012276

  1 C s       :     2.990819  s :     2.990819
      pz      :     0.818960  p :     2.375950
      px      :     0.776393
      py      :     0.780597
      dz2     :     0.028803  d :     0.119061
      dxz     :     0.024036
      dyz     :     0.040124
      dx2y2   :     0.012726
      dxy     :     0.013372

  2 H s       :     0.736353  s :     0.736353
      pz      :     0.007637  p :     0.023737
      px      :     0.008480
      py      :     0.007620

  3 H s       :     0.722623  s :     0.722623
      pz      :     0.010829  p :     0.023980
      px      :     0.008211
      py      :     0.004939

  4 N s       :     3.628029  s :     3.628029
      pz      :     1.153527  p :     3.921040
      px      :     1.589947
      py      :     1.177566
      dz2     :     0.001917  d :     0.028141
      dxz     :     0.010361
      dyz     :     0.005161
      dx2y2   :     0.006303
      dxy     :     0.004399

  5 O s       :     3.841007  s :     3.841007
      pz      :     1.563558  p :     4.597350
      px      :     1.686079
      py      :     1.347713
      dz2     :     0.004992  d :     0.023305
      dxz     :     0.003584
      dyz     :     0.008630
      dx2y2   :     0.003058
      dxy     :     0.003041

  6 H s       :     0.846154  s :     0.846154
      pz      :     0.004291  p :     0.010842
      px      :     0.004852
      py      :     0.001699

  7 H s       :     0.869851  s :     0.869851
      pz      :     0.003416  p :     0.011199
      px      :     0.004919
      py      :     0.002864

  8 H s       :     0.640457  s :     0.640457
      pz      :     0.016426  p :     0.037494
      px      :     0.009105
      py      :     0.011963

  9 O s       :     3.873319  s :     3.873319
      pz      :     1.360513  p :     4.515454
      px      :     1.474250
      py      :     1.680691
      dz2     :     0.009428  d :     0.027510
      dxz     :     0.009135
      dyz     :     0.007606
      dx2y2   :     0.000789
      dxy     :     0.000552



                     *******************************
                     * LOEWDIN POPULATION ANALYSIS *
                     *******************************

----------------------
LOEWDIN ATOMIC CHARGES
----------------------
   0 C :   -0.093512
   1 C :    0.141080
   2 H :    0.127314
   3 H :    0.131496
   4 N :   -0.271411
   5 O :   -0.155819
   6 H :    0.086734
   7 H :    0.071601
   8 H :    0.185443
   9 O :   -0.222925

-------------------------------
LOEWDIN REDUCED ORBITAL CHARGES
-------------------------------
  0 C s       :     2.905307  s :     2.905307
      pz      :     1.046258  p :     3.079699
      px      :     1.082376
      py      :     0.951065
      dz2     :     0.009560  d :     0.108506
      dxz     :     0.022087
      dyz     :     0.029522
      dx2y2   :     0.022327
      dxy     :     0.025010

  1 C s       :     2.860924  s :     2.860924
      pz      :     1.022715  p :     2.718273
      px      :     0.810895
      py      :     0.884664
      dz2     :     0.070555  d :     0.279723
      dxz     :     0.053047
      dyz     :     0.098050
      dx2y2   :     0.026990
      dxy     :     0.031079

  2 H s       :     0.795302  s :     0.795302
      pz      :     0.025338  p :     0.077384
      px      :     0.028897
      py      :     0.023149

  3 H s       :     0.789261  s :     0.789261
      pz      :     0.037556  p :     0.079243
      px      :     0.028369
      py      :     0.013318

  4 N s       :     3.215749  s :     3.215749
      pz      :     1.181670  p :     3.999541
      px      :     1.583702
      py      :     1.234169
      dz2     :     0.006629  d :     0.056122
      dxz     :     0.016615
      dyz     :     0.013203
      dx2y2   :     0.011830
      dxy     :     0.007844

  5 O s       :     3.495740  s :     3.495740
      pz      :     1.571589  p :     4.611628
      px      :     1.667500
      py      :     1.372539
      dz2     :     0.008113  d :     0.048452
      dxz     :     0.005092
      dyz     :     0.018044
      dx2y2   :     0.007842
      dxy     :     0.009361

  6 H s       :     0.874219  s :     0.874219
      pz      :     0.015875  p :     0.039047
      px      :     0.017844
      py      :     0.005328

  7 H s       :     0.889546  s :     0.889546
      pz      :     0.010796  p :     0.038854
      px      :     0.017977
      py      :     0.010081

  8 H s       :     0.700655  s :     0.700655
      pz      :     0.052895  p :     0.113903
      px      :     0.025540
      py      :     0.035468

  9 O s       :     3.568317  s :     3.568317
      pz      :     1.466103  p :     4.598714
      px      :     1.464754
      py      :     1.667857
      dz2     :     0.025441  d :     0.055894
      dxz     :     0.014628
      dyz     :     0.013617
      dx2y2   :     0.001136
      dxy     :     0.001071



                      *****************************
                      * MAYER POPULATION ANALYSIS *
                      *****************************

  NA   - Mulliken gross atomic population
  ZA   - Total nuclear charge
  QA   - Mulliken gross atomic charge
  VA   - Mayer's total valence
  BVA  - Mayer's bonded valence
  FA   - Mayer's free valence

  ATOM       NA         ZA         QA         VA         BVA        FA
  0 C      6.1363     6.0000    -0.1363     3.8384     3.8384    -0.0000
  1 C      5.4858     6.0000     0.5142     3.9617     3.9617    -0.0000
  2 H      0.7601     1.0000     0.2399     0.9182     0.9182     0.0000
  3 H      0.7466     1.0000     0.2534     0.9276     0.9276     0.0000
  4 N      7.5772     7.0000    -0.5772     2.8422     2.8422     0.0000
  5 O      8.4617     8.0000    -0.4617     2.0403     2.0403    -0.0000
  6 H      0.8570     1.0000     0.1430     0.9432     0.9432    -0.0000
  7 H      0.8811     1.0000     0.1189     0.9408     0.9408     0.0000
  8 H      0.6780     1.0000     0.3220     0.9143     0.9143    -0.0000
  9 O      8.4163     8.0000    -0.4163     2.1158     2.1158    -0.0000

  Mayer bond orders larger than 0.100000
B(  0-C ,  1-C ) :   0.9450 B(  0-C ,  4-N ) :   1.0224 B(  0-C ,  6-H ) :   0.9268 
B(  0-C ,  7-H ) :   0.9127 B(  1-C ,  5-O ) :   1.0845 B(  1-C ,  9-O ) :   1.9096 
B(  2-H ,  4-N ) :   0.9080 B(  3-H ,  4-N ) :   0.8898 B(  5-O ,  8-H ) :   0.8523 


-------
TIMINGS
-------

Total SCF time: 0 days 0 hours 0 min 0 sec 

Total time                  ....       0.993 sec
Sum of individual times     ....       0.840 sec  ( 84.6%)

SCF preparation             ....       0.027 sec  (  2.7%)
Fock matrix formation       ....       0.800 sec  ( 80.6%)
  Startup                   ....       0.000 sec  (  0.0% of F)
  Split-RI-J                ....       0.195 sec  ( 24.4% of F)
  XC integration            ....       0.726 sec  ( 90.7% of F)
    Basis function eval.    ....       0.253 sec  ( 34.8% of XC)
    Density eval.           ....       0.127 sec  ( 17.5% of XC)
    XC-Functional eval.     ....       0.199 sec  ( 27.4% of XC)
    XC-Potential eval.      ....       0.125 sec  ( 17.3% of XC)
Diagonalization             ....       0.000 sec  (  0.0%)
Density matrix formation    ....       0.001 sec  (  0.1%)
Total Energy calculation    ....       0.000 sec  (  0.0%)
Population analysis         ....       0.008 sec  (  0.8%)
Orbital Transformation      ....       0.001 sec  (  0.1%)
Orbital Orthonormalization  ....       0.000 sec  (  0.0%)
DIIS solution               ....       0.001 sec  (  0.1%)
SOSCF solution              ....       0.003 sec  (  0.3%)
Finished LeanSCF after   1.0 sec

Maximum memory used throughout the entire LEANSCF-calculation: 10.7 MB



-------------------------------------------------------------------------------
                          DFT DISPERSION CORRECTION                            
-------------------------------------------------------------------------------
Active option DFTDOPT                   ...         2   
Final C6-coefficient scaling factor     ...     1.250
Final VDW-radii scaling factor          ...     1.100
Damping factor alpha                    ...    20.000
-------------------------   ----------------
Dispersion correction           -0.006990531
-------------------------   ----------------


-------------------------   --------------------
FINAL SINGLE POINT ENERGY      -284.251465457572
-------------------------   --------------------

                                *** OPTIMIZATION RUN DONE ***


------------------------------------------------------------------------------
                              ORCA PROPERTY CALCULATIONS
------------------------------------------------------------------------------

GBWName                                 ... 3.gbw
Number of atoms                         ...     10
Number of basis functions               ...     95
Max core memory                         ...   4096 MB

Electric properties:
Dipole moment                           ... YES
Quadrupole moment                       ...  NO
Static polarizability (Dipole/Dipole)   ...  NO
Static polarizability (Dipole/Quad.)    ...  NO
Static polarizability (Quad./Quad.)     ...  NO
Static polarizability (Velocity)        ...  NO
Static hyperpolarizability              ...  NO

Atomic electric properties:
Dipole moment                           ...  NO
Quadrupole moment                       ...  NO
Static polarizability                   ...  NO

Choice of electric origin               ... Center of mass
Position of electric origin             ...    -9.095252    -3.498796     1.620783

General magnetic properties:
Magnetizability                         ...  NO

EPR properties:
g-Tensor (aka g-matrix)                 ...  NO
Zero-Field splitting spin-orbit         ...  NO
Zero-field splitting spin-spin          ...  NO
Hyperfine couplings                     ...  NO (   0 nuclei)
Quadrupole couplings                    ...  NO (   0 nuclei)
Contact density                         ...  NO (   0 nuclei)

NMR properties:
Chemical shifts                         ...  NO (   0 nuclei)
Spin-rotation constants                 ...  NO (   0 nuclei)
Spin-spin couplings                     ...  NO (   0 nuclei,    0 pairs)

Choice of magnetic origin               ... GIAO
Position of magnetic origin             ...     0.000000     0.000000     0.000000

Properties with geometric perturbations:
SCF Hessian                             ...  NO
IR spectrum                             ...  NO
VCD spectrum                            ...  NO
X-ray spectroscopy properties:
SCF XES/XAS/RIXS spectra                ...  NO

SCF SOC stabilization energy            ...  NO
Diagonal Born-Oppenheimer correction    ...  NO

-------------
DIPOLE MOMENT
-------------

Method             : SCF
Type of density    : Electron Density
Multiplicity       :   1
Irrep              :   0
Energy             :  -284.2444749262033383 Eh
Basis              : AO
                                X                 Y                 Z
Electronic contribution:      1.221091855      -2.774559848       2.456444815
Nuclear contribution   :     -1.599925975       2.386106872      -3.029562843
                        -----------------------------------------
Total Dipole Moment    :     -0.378834120      -0.388452976      -0.573118028
                        -----------------------------------------
Magnitude (a.u.)       :      0.789224480
Magnitude (Debye)      :      2.006049204



--------------------
Rotational spectrum 
--------------------
 
Rotational constants in cm-1:             0.337430             0.130011             0.096857 
Rotational constants in MHz :         10115.909268          3897.645746          2903.687949 

Dipole components along the rotational axes: 
x,y,z [a.u.] :    -0.085068    -0.550931     0.558671 
x,y,z [Debye]:    -0.216225    -1.400356     1.420029 

 

Dipole moment calculation done in   0.0 sec 

Maximum memory used throughout the entire PROP-calculation: 6.2 MB

--------------------------------
SUGGESTED CITATIONS FOR THIS RUN
--------------------------------

Below you find a list of papers that are relevant to this ORCA run
We neither can nor want to force you to cite these papers, but we appreciate if you do
You receive ORCA, which is the product of decades of hard work by many enthusiastic individuals, for free
The only thing we kindly ask in return is that you cite our papers,
We deeply appreciate it, if you show your appreciation for ORCA by not just citing the generic ORCA reference.

Please note that relegating all ORCA citations to the supporting information does *not* help us.
SI sections are not indexed - citations you put there will not count into any citation statistics
But we need these citations in order to attract the funding resources that allow us to do what we are doing

Therefore, if you are a happy ORCA user, please consider citing a few of the papers listed below in the main body of your paper

In addition to the list printed below, the program has created the file 3.bibtex that contains the list in bibtex format
You can import this file easily into all common literature databanks and citation aid programs


List of essential papers. We consider these as the minimum necessary citations

  1. Neese, F.
     Software update: the ORCA program system, version 6.0
     WIRES Comput. Molec. Sci. 2025 15(1), e70019
     doi.org/10.1002/wcms.7019

List of papers to cite with high priority. The work reported in these papers was absolutely
necessary for this run to complete.
Our perspective: the developers of density functionals and basis sets usually get cited in chemistry papers
Good! But without the algorithms to do something with them, the functionals or basis sets would not do anything.
Hence, in our opinion, the algorithm design and method developments papers are equally worthy of getting cited

  1. Neese, F.
     An improvement of the resolution of the identity approximation for the formation of the Coulomb matrix
     J. Comp. Chem. 2003 24(14), 1740-1747
     doi.org/10.1002/jcc.10318
  2. Grimme, S.
     Semiempirical GGA-type density functional constructed with a long-range dispersion correction
     J.Comput.Chem. 2006 27(15), 1787-1799
     doi.org/10.1002/jcc.20495
  3. Neese, F.
     The SHARK Integral Generation and Digestion System
     J. Comp. Chem. 2022 44(3), 381
     doi.org/10.1002/jcc.26942

List of suggested additional citations. These are papers that are important in the 'surrounding' of 
of this run, or papers that preceded the highly important papers. If you like your results we are grateful for a citation.

  1. Neese, F.
     The ORCA program system
     WIRES Comput. Molec. Sci. 2012 2(1), 73-78
     doi.org/10.1002/wcms.81
  2. Neese, F.
     Software update: the ORCA program system, version 4.0
     WIRES Comput. Molec. Sci. 2018 8(1), 1-6
     doi.org/10.1002/wcms.1327
  3. Neese, F.; Wennmohs, F.; Becker, U.; Riplinger, C.
     The ORCA quantum chemistry program package
     J. Chem. Phys. 2020 152(22), 224108
     doi.org/10.1063/5.0004608
  4. Neese, F.
     Software update: The ORCA program system—Version 5.0
     WIRES Comput. Molec. Sci. 2022 12(1), e1606
     doi.org/10.1002/wcms.1606

List of optional additional citations

  1. Neese, F.
     Approximate second-order SCF convergence for spin unrestricted wavefunctions
     Chem. Phys. Lett. 2000 325(1-3), 93-98
     doi.org/10.1016/s0009-2614(00)00662-x

Timings for individual modules:

Sum of individual times          ...       29.478 sec (=   0.491 min)
Startup calculation              ...        2.259 sec (=   0.038 min)   7.7 %
SCF iterations                   ...       17.703 sec (=   0.295 min)  60.1 %
Property calculations            ...        0.038 sec (=   0.001 min)   0.1 %
SCF Gradient evaluation          ...        9.468 sec (=   0.158 min)  32.1 %
Geometry relaxation              ...        0.011 sec (=   0.000 min)   0.0 %
                             ****ORCA TERMINATED NORMALLY****
TOTAL RUN TIME: 0 days 0 hours 0 minutes 29 seconds 745 msec
