
                                 *****************
                                 * O   R   C   A *
                                 *****************

                                            #,                                       
                                            ###                                      
                                            ####                                     
                                            #####                                    
                                            ######                                   
                                           ########,                                 
                                     ,,################,,,,,                         
                               ,,#################################,,                 
                          ,,##########################################,,             
                       ,#########################################, ''#####,          
                    ,#############################################,,   '####,        
                  ,##################################################,,,,####,       
                ,###########''''           ''''###############################       
              ,#####''   ,,,,##########,,,,          '''####'''          '####       
            ,##' ,,,,###########################,,,                        '##       
           ' ,,###''''                  '''############,,,                           
         ,,##''                                '''############,,,,        ,,,,,,###''
      ,#''                                            '''#######################'''  
     '                                                          ''''####''''         
             ,#######,   #######,   ,#######,      ##                                
            ,#'     '#,  ##    ##  ,#'     '#,    #''#        ,####,    ,#,          
            ##       ##  ##   ,#'  ##            #'  '#       #'       ,# #          
            ##       ##  #######   ##           ,######,      #####,      #          
            '#,     ,#'  ##    ##  '#,     ,#' ,#      #,     #,   #      #          
             '#######'   ##     ##  '#######'  #'      '#     '####' #    #          



                #########################################################
                #                        -***-                          #
                #          Department of theory and spectroscopy        #
                #                                                       #
                #                      Frank Neese                      #
                #                                                       #
                #     Directorship, Architecture, Infrastructure        #
                #                    SHARK, DRIVERS                     #
                #        Core code/Algorithms in most modules           #
                #                                                       #
                #        Max Planck Institute fuer Kohlenforschung      #
                #                Kaiser Wilhelm Platz 1                 #
                #                 D-45470 Muelheim/Ruhr                 #
                #                      Germany                          #
                #                                                       #
                #                  All rights reserved                  #
                #                        -***-                          #
                #########################################################


                         Program Version 6.1.0  -  RELEASE   -
                                (GIT: $679e74b$)
                          ($2025-06-10 18:02:51 +0200$)


 With contributions from (in alphabetic order):
[Max-Planck-Institut fuer Kohlenforschung]                               
  Daniel Aravena         : Magnetic Suceptibility                        
  Michael Atanasov       : Ab Initio Ligand Field Theory (pilot matlab implementation)
  Alexander A. Auer      : GIAO ZORA, VPT2 properties, NMR spectrum      
  Ute Becker             : All parallelization in ORCA, NUMFREQ, NUMCALC 
  Giovanni Bistoni       : ED, misc. LED, open-shell LED, HFLD           
  Dmytro Bykov           : pre 5.0 version of the SCF Hessian            
  Marcos Casanova-Páez   : Triplet and SCS-CIS(D). UHF-(DLPNO)-IP/EA/STEOM-CCSD. UHF-CVS-IP/STEOM-CCSD   
  Vijay G. Chilkuri      : MRCI spin determinant printing, contributions to CSF-ICE 
  Pauline Colinet        : FMM embedding                                 
  Dipayan Datta          : RHF DLPNO-CCSD density                        
  Achintya Kumar Dutta   : EOM-CC, STEOM-CC                              
  Nicolas Foglia         : Exact transition moments, OPA infrastructure, MCD improvements    
  Dmitry Ganyushin       : Spin-Orbit,Spin-Spin,Magnetic field MRCI      
  Miquel Garcia-Rates    : C-PCM and meta-GGA Hessian, CCSD/C-PCM, Gaussian charge scheme 
  Tiago L. C. Gouveia    : GS-ROHF, GS-ROCIS                             
  Yang Guo               : DLPNO-NEVPT2, F12-NEVPT2, CIM, IAO-localization        
  Andreas Hansen         : Spin unrestricted coupled pair/coupled cluster methods 
  Ingolf Harden          : AUTO-CI MPn and infrastructure                
  Benjamin Helmich-Paris : MC-RPA, TRAH-(SCF,CASSCF), AVAS, COSX integrals, SCF dyn. polar., MC-PDFT, srDFT 
  Lee Huntington         : MR-EOM, pCC                                   
  Robert Izsak           : Overlap fitted RIJCOSX, COSX-SCS-MP3, EOM     
  Riya Kayal             : Wick's Theorem for AUTO-CI, AUTO-CI UHF-CCSDT 
  Emily Kempfer          : AUTO-CI RHF CISDT and CCSDT, approximate NEVPT4
  Christian Kollmar      : KDIIS, OOCD, Brueckner-CCSD(T), CCSD density, CASPT2, CASPT2-K, improved NEVPT2 
  Axel Koslowski         : Symmetry handling                             
  Simone Kossmann        : meta-GGA functionals, TD-DFT gradient, OOMP2, (MP2 Hessian; deprecated post 5.0) 
  Lucas Lang             : DCDCAS, Hyperfine gauge corrections, ICE-SOC+SSC
  Marvin Lechner         : AUTO-CI (C++ implementation), FIC-MRCC        
  Spencer Leger          : CASSCF response                               
  Dagmar Lenk            : GEPOL surface, SMD, ORCA-2-JSON               
  Dimitrios Liakos       : Extrapolation schemes; Compound Job, Property file
  Dimitrios Manganas     : Further ROCIS development; embedding schemes. LFT, Crystal Embedding 
  Dimitrios Pantazis     : SARC Basis sets                               
  Anastasios Papadopoulos: AUTO-CI, single reference methods and gradients 
  Taras Petrenko         : pre 6.0 DFT Hessian and TD-DFT gradient,  ECA, NRVS 
  Petra Pikulova         : Analytic Raman intensities                    
  Peter Pinski           : DLPNO-MP2, DLPNO-MP2 Gradient                 
  Shashank Vittal Rao    : ES-AILFT, MagRelax                            
  Christoph Reimann      : Effective Core Potentials                     
  Marius Retegan         : Local ZFS, SOC                                
  Christoph Riplinger    : Optimizer, TS searches, QM/MM, DLPNO-CCSD(T), (RO)-DLPNO pert. Triples 
  Michael Roemelt        : Original ROCIS implementation, recursive CI coupling coefficients
  Masaaki Saitow         : Open-shell DLPNO-CCSD energy and density      
  Barbara Sandhoefer     : DKH picture change effects                    
  Yorick L. A. Schmerwitz: GMF and freeze-and-release deltaSCF, NEB S-IDPP initial path                    
  Kantharuban Sivalingam : CASSCF convergence/infrastructure, NEVPT2, NEVPT3, NEVPT4(SD), FIC-MRCI and CEPA variants
  Bernardo de Souza      : ESD, SOC TD-DFT                               
  Georgi L. Stoychev     : AutoAux, RI-MP2 NMR, DLPNO-MP2 response, X2C  
  Van Anh Tran           : RI-MP2 g-tensors                              
  Willem Van den Heuvel  : Paramagnetic NMR                              
  Zikuan Wang            : NOTCH, Electric field optimization            
  Frank Wennmohs         : Technical directorship and infrastructure     
  Hang Xu                : AUTO-CI-Response properties                   
                                                                         
[FACCTs GmbH]                                                            
  Markus Bursch, Nicolas Foglia, Miquel Garcia-Rates, Ingolf Harden, Hagen Neugebauer, Anastasios Papadopoulos, 
  Christoph Riplinger, Bernardo de Souza, Georgi L. Stoychev                                                    
                                                                 
  APM, various basis sets, CI-OPT, improved COSX, DLPNO-Multilevel,           
  DOCKER, DRACO, updates on ESD, Fragmentator, GOAT, IRC, LR-CPCM, L-BFGS, MBIS, meta-GGA TD-DFT gradient, ML-optimized integration grids, 
  MM, NACMEs, nearIR, NEB, NEB-TS, NL-DFT gradient (VV10), 2- and 3-layer-ONIOM, interface openCOSMO-RS, QMMM,   
  Crystal-QMMM, RESP, rigid body optimization, SF, symmetry and pop. for TD-DFT, various functionals, SOLVATOR                                   
                                                                         
[Other institutions]                                                     
  V. Asgeirsson          : NEB                                           
  Christoph Bannwarth    : sTDA-DFT, sTD-DFT, PBEh-3c, B97-3c, D3        
  Giovanni Bistoni       : ETS/NOCV, ADLD/ADEX, COVALED                  
  Martin Brehm           : Molecular dynamics                            
  Ronald Cardenas        : ETS/NOCV                                      
  Martina Colucci        : COVALED                                       
  Sebastian Ehlert       : rSCAN, r2SCAN, r2SCAN-3c, D4, dhf basis sets  
  Marvin Friede          : D4 for Fr, Ra, Ac-Lr                          
  Lars Goerigk           : TD-DFT with DH, B97 family of functionals     
  Stefan Grimme          : VdW corrections, initial TS optimization, DFT functionals, gCP, sTDA/sTD-DF 
  Waldemar Hujo          : DFT-NL                                        
  H. Jonsson             : NEB                                           
  Holger Kruse           : gCP                                           
  Marcel Mueller         : wB97X-3c, vDZP basis set                      
  Hagen Neugebauer       : wr2SCAN, Native XTB                           
  Gianluca Regni         : ADLD/ADEX                                     
  Tobias Risthaus        : pre 6.0 range-separated hybrid DFT and stability analysis
  Lukas Wittmann         : regularized MP2, r2SCAN double-hybrids, wr2SCAN        
                                                                         
We gratefully acknowledge several colleagues who have allowed us to      
interface, adapt or use parts of their codes:                            
  Ed Valeev, F. Pavosevic, A. Kumar             : LibInt (2-el integral package), F12 methods 
  Garnet Chan, S. Sharma, J. Yang, R. Olivares  : DMRG                   
  Ulf Ekstrom                                   : XCFun DFT Library      
  Mihaly Kallay                                 : mrcc  (arbitrary order and MRCC methods)
  Frank Weinhold                                : gennbo (NPA and NBO analysis)           
  Simon Mueller                                 : openCOSMO-RS                            
  Christopher J. Cramer and Donald G. Truhlar   : smd solvation model                     
  S Lehtola, MJT Oliveira, MAL Marques          : LibXC Library                           
  Liviu Ungur et al                             : ANISO software                          


 Your calculation uses the libint2 library for the computation of 2-el integrals
 For citations please refer to: http://libint.valeyev.net

 Your ORCA version has been built with support for libXC version: 7.0.0
 For citations please refer to: https://libxc.gitlab.io

 This ORCA versions uses:
   CBLAS   interface :  Fast vector & matrix operations
   LAPACKE interface :  Fast linear algebra routines
   SCALAPACK package :  Parallel linear algebra routines
   Shared memory     :  Shared parallel matrices
   BLAS/LAPACK       :  OpenBLAS 0.3.29  USE64BITINT DYNAMIC_ARCH NO_AFFINITY Haswell SINGLE_THREADED
        Core in use  :  Haswell
   Copyright (c) 2011-2014, The OpenBLAS Project


  ***********************************
  * Starting time: Sun Aug 31 13:40:29 2025
  * Host name:     chemlab03
  * Process ID:    92712
  * Working dir.:  /home/vivek/mm-project/vivek/xtb-goat/MP2-opt/d/3
  ***********************************



***************************************
The coordinates will be read from file: /home/vivek/mm-project/vivek/xtb-goat/xtb-goat/d/D_CONF/3.xyz
***************************************


================================================================================

----- Orbital basis set information -----
Your calculation utilizes the basis: 6-31G**
   H-He, Li-Ne : W. J. Hehre, R. Ditchfield and J.A. Pople, J. Chem. Phys. 56, 2257 (1972).
                 Note: He and Ne are unpublished basis sets taken from the Gaussian program.
                 Note: Li and B from J. D. Dill and J. A. Pople, J. Chem. Phys. 62, 2921 (1975).
   Na - Ar     : M. M. Francl, W. J. Pietro, W. J. Hehre, J. S. Binkley, M. S. Gordon, 
                 D. J. DeFrees and J. A. Pople, J. Chem. Phys. 77, 3654 (1982).
   K - Zn      : V. A. Rassolov, J. A. Pople, M. A. Ratner, and T. L. Windus, J. Chem. Phys. 109, 1223 (1998).

================================================================================
                                        WARNINGS
                       Please study these warnings very carefully!
================================================================================


WARNING: The frozen-core approximation for MP2-gradient calculations is turned on by default.

WARNING: Geometry Optimization
  ===> : Switching off AutoStart
         For restart on a previous wavefunction, please use MOREAD

WARNING: Post HF methods need fully converged wavefunctions
  ===> : Setting SCFConvForced true
         You can overwrite this default with %scf ConvForced false 


================================================================================
                                       INPUT FILE
================================================================================
NAME = 3.inp
|  1> ! MP2 6-31G** opt
|  2> 
|  3> * xyzfile 0 1 /home/vivek/mm-project/vivek/xtb-goat/xtb-goat/d/D_CONF/3.xyz
|  4> 
|  5>                          ****END OF INPUT****
================================================================================

                       *****************************
                       * Geometry Optimization Run *
                       *****************************

Geometry optimization settings:
Update method            Update   .... BFGS
Choice of coordinates    CoordSys .... (2022) Redundant Internals
Initial Hessian          InHess   .... Almloef's Model
Max. no of cycles        MaxIter  .... 50

Convergence Tolerances:
Energy Change            TolE     ....  5.0000e-06 Eh
Max. Gradient            TolMAXG  ....  3.0000e-04 Eh/bohr
RMS Gradient             TolRMSG  ....  1.0000e-04 Eh/bohr
Max. Displacement        TolMAXD  ....  4.0000e-03 bohr
RMS Displacement         TolRMSD  ....  2.0000e-03 bohr
Strict Convergence                .... False

------------------------------------------------------------------------------
                        ORCA OPTIMIZATION COORDINATE SETUP
------------------------------------------------------------------------------

The optimization will be done in redundant internal coordinates (2022)
Making redundant internal coordinates   ...  (2022 redundants) done
Evaluating the initial hessian          ...  (Almloef) done
Evaluating the coordinates              ...  done
Calculating the B-matrix                .... done
Calculating the G-matrix                .... done
The number of degrees of freedom        ....   64

    -----------------------------------------------------------------
                    Redundant Internal Coordinates


    -----------------------------------------------------------------
         Definition                    Initial Value    Approx d2E/dq
    -----------------------------------------------------------------
      1. B(C   1,C   0)                  1.5099         0.402150   
      2. B(O   4,C   0)                  1.3368         0.680308   
      3. B(C   5,C   1)                  1.5436         0.355422   
      4. B(H   6,C   1)                  1.0897         0.360532   
      5. B(H   7,C   1)                  1.0882         0.362473   
      6. B(C   8,C   5)                  1.5309         0.372403   
      7. B(C   8,O   2)                  1.2012         1.119778   
      8. B(O   9,C   0)                  1.2012         1.119521   
      9. B(N  10,C   5)                  1.4437         0.459453   
     10. B(O  11,C   8)                  1.3355         0.683582   
     11. B(O  11,H   3)                  0.9708         0.499802   
     12. B(H  12,N  10)                  1.0146         0.425394   
     13. B(H  13,O   4)                  0.9710         0.499309   
     14. B(H  14,C   5)                  1.0984         0.349164   
     15. B(H  15,N  10)                  1.0164         0.422592   
     16. B(H  15,O   9)                  2.2494         0.010000   
     17. A(C   1,C   0,O   9)          125.3732         0.443690   
     18. A(C   1,C   0,O   4)          112.0005         0.405874   
     19. A(O   4,C   0,O   9)          122.6015         0.485221   
     20. A(C   5,C   1,H   7)          110.1760         0.322027   
     21. A(C   0,C   1,H   6)          109.3246         0.328342   
     22. A(H   6,C   1,H   7)          111.0207         0.291195   
     23. A(C   5,C   1,H   6)          107.7942         0.321744   
     24. A(C   0,C   1,C   5)          108.9373         0.364839   
     25. A(C   0,C   1,H   7)          109.5436         0.328634   
     26. A(C   0,O   4,H  13)          110.6815         0.373464   
     27. A(C   8,C   5,N  10)          113.6558         0.373938   
     28. A(C   1,C   5,N  10)          110.3882         0.370943   
     29. A(N  10,C   5,H  14)          108.6260         0.331871   
     30. A(C   8,C   5,H  14)          107.1597         0.322516   
     31. A(C   1,C   5,H  14)          108.4516         0.320062   
     32. A(C   1,C   5,C   8)          108.3972         0.360083   
     33. A(C   5,C   8,O  11)          112.0737         0.400748   
     34. A(O   2,C   8,O  11)          123.2504         0.485672   
     35. A(O   2,C   8,C   5)          124.6727         0.437592   
     36. A(H  12,N  10,H  15)          107.2347         0.301292   
     37. A(C   5,N  10,H  15)          110.0579         0.339638   
     38. A(C   5,N  10,H  12)          110.2521         0.340013   
     39. A(H   3,O  11,C   8)          110.7838         0.373837   
     40. D(H   6,C   1,C   0,O   9)     47.1825         0.011997   
     41. D(C   5,C   1,C   0,O   9)    -70.3787         0.011997   
     42. D(H   6,C   1,C   0,O   4)   -134.5962         0.011997   
     43. D(C   5,C   1,C   0,O   4)    107.8427         0.011997   
     44. D(H   7,C   1,C   0,O   4)    -12.7364         0.011997   
     45. D(H  13,O   4,C   0,O   9)      0.2699         0.034475   
     46. D(H  13,O   4,C   0,C   1)   -178.0086         0.034475   
     47. D(N  10,C   5,C   1,H   7)   -169.4294         0.010154   
     48. D(N  10,C   5,C   1,H   6)    -48.1447         0.010154   
     49. D(N  10,C   5,C   1,C   0)     70.3811         0.010154   
     50. D(C   8,C   5,C   1,H   7)     65.4900         0.010154   
     51. D(C   8,C   5,C   1,H   6)   -173.2253         0.010154   
     52. D(C   8,C   5,C   1,C   0)    -54.6995         0.010154   
     53. D(O   2,C   8,C   5,N  10)     -8.4652         0.010376   
     54. D(O   2,C   8,C   5,C   1)    114.6633         0.010376   
     55. D(O  11,C   8,C   5,N  10)    170.9079         0.010376   
     56. D(O  11,C   8,C   5,C   1)    -65.9636         0.010376   
     57. D(O   2,C   8,C   5,H  14)   -128.4781         0.010376   
     58. D(H  15,N  10,C   5,C   1)    -47.0398         0.018019   
     59. D(H  12,N  10,C   5,H  14)     76.0775         0.018019   
     60. D(H  12,N  10,C   5,C   8)    -43.1019         0.018019   
     61. D(H  15,N  10,C   5,C   8)     74.9919         0.018019   
     62. D(H  12,N  10,C   5,C   1)   -165.1336         0.018019   
     63. D(H   3,O  11,C   8,C   5)    179.1933         0.034838   
     64. D(H   3,O  11,C   8,O   2)     -1.4231         0.034838   
    -----------------------------------------------------------------

Number of atoms                         .... 16
Number of degrees of freedom            .... 64


         *************************************************************
         *                GEOMETRY OPTIMIZATION CYCLE   1            *
         *************************************************************
---------------------------------
CARTESIAN COORDINATES (ANGSTROEM)
---------------------------------
  C     -4.165492    1.164613    1.287679
  C     -3.881167    1.151304   -0.195186
  O     -2.519305    4.051007    0.972277
  H     -4.369331    4.903987   -0.180465
  O     -5.314688    1.785738    1.571697
  C     -2.724953    2.129790   -0.492356
  H     -3.557688    0.153800   -0.491388
  H     -4.774748    1.449684   -0.739878
  C     -3.096838    3.503027    0.072833
  O     -3.448319    0.709996    2.137361
  N     -1.480654    1.609184    0.022315
  O     -4.141940    4.040586   -0.561528
  H     -0.778226    2.340865    0.049390
  H     -5.463070    1.810652    2.530999
  H     -2.634957    2.241116   -1.581382
  H     -1.608434    1.278976    0.975092

----------------------------
CARTESIAN COORDINATES (A.U.)
----------------------------
  NO LB      ZA    FRAG     MASS         X           Y           Z
   0 C     6.0000    0    12.011   -7.871639    2.200799    2.433360
   1 C     6.0000    0    12.011   -7.334343    2.175649   -0.368849
   2 O     8.0000    0    15.999   -4.760797    7.655293    1.837337
   3 H     1.0000    0     1.008   -8.256839    9.267192   -0.341029
   4 O     8.0000    0    15.999  -10.043304    3.374555    2.970076
   5 C     6.0000    0    12.011   -5.149415    4.024720   -0.930417
   6 H     1.0000    0     1.008   -6.723056    0.290639   -0.928589
   7 H     1.0000    0     1.008   -9.022965    2.739505   -1.398167
   8 C     6.0000    0    12.011   -5.852176    6.619762    0.137635
   9 O     8.0000    0    15.999   -6.516378    1.341698    4.039027
  10 N     7.0000    0    14.007   -2.798031    3.040917    0.042169
  11 O     8.0000    0    15.999   -7.827132    7.635600   -1.061134
  12 H     1.0000    0     1.008   -1.470634    4.423594    0.093333
  13 H     1.0000    0     1.008  -10.323706    3.421637    4.782894
  14 H     1.0000    0     1.008   -4.979346    4.235095   -2.988379
  15 H     1.0000    0     1.008   -3.039501    2.416915    1.842657

--------------------------------
INTERNAL COORDINATES (ANGSTROEM)
--------------------------------
 C      0   0   0     0.000000000000     0.00000000     0.00000000
 C      1   0   0     1.509936001382     0.00000000     0.00000000
 O      1   2   0     3.337765654459    79.74382303     0.00000000
 H      3   1   2     2.340722551799    88.38732379    69.98807413
 O      1   2   3     1.336829649414   112.00054785    88.46490020
 C      2   1   3     1.543559429594   108.93725180    19.37779894
 H      2   1   3     1.089673767103   109.32464132   136.93894837
 H      2   1   3     1.088211933572   109.54356583   258.79871537
 C      3   1   2     1.201176041770    55.88297322    23.21086084
 O      1   2   3     1.201238692296   125.37317391   270.24350611
 N      6   2   1     1.443674434373   110.38818394    70.38110662
 O      4   3   1     0.970761184982    71.58320131   311.25582536
 H     11   6   2     1.014640593778   110.25213802   194.86641311
 H      5   1   2     0.971029645307   110.68152655   181.99140440
 H      6   2   1     1.098395059787   108.45155352   189.27627197
 H     11   6   2     1.016439700192   110.05794521   312.96023013

---------------------------
INTERNAL COORDINATES (A.U.)
---------------------------
 C      0   0   0     0.000000000000     0.00000000     0.00000000
 C      1   0   0     2.853365522360     0.00000000     0.00000000
 O      1   2   0     6.307462986135    79.74382303     0.00000000
 H      3   1   2     4.423324578394    88.38732379    69.98807413
 O      1   2   3     2.526241925098   112.00054785    88.46490020
 C      2   1   3     2.916904593364   108.93725180    19.37779894
 H      2   1   3     2.059184995142   109.32464132   136.93894837
 H      2   1   3     2.056422530116   109.54356583   258.79871537
 C      3   1   2     2.269893757573    55.88297322    23.21086084
 O      1   2   3     2.270012149909   125.37317391   270.24350611
 N      6   2   1     2.728149307509   110.38818394    70.38110662
 O      4   3   1     1.834472781058    71.58320131   311.25582536
 H     11   6   2     1.917392846599   110.25213802   194.86641311
 H      5   1   2     1.834980097549   110.68152655   181.99140440
 H      6   2   1     2.075665849849   108.45155352   189.27627197
 H     11   6   2     1.920792665008   110.05794521   312.96023013

---------------------
BASIS SET INFORMATION
---------------------
There are 4 groups of distinct atoms

 Group   1 Type C   : 10s4p1d contracted to 3s2p1d pattern {631/31/1}
 Group   2 Type O   : 10s4p1d contracted to 3s2p1d pattern {631/31/1}
 Group   3 Type H   : 4s1p contracted to 2s1p pattern {31/1}
 Group   4 Type N   : 10s4p1d contracted to 3s2p1d pattern {631/31/1}

Atom   0C    basis set group =>   1
Atom   1C    basis set group =>   1
Atom   2O    basis set group =>   2
Atom   3H    basis set group =>   3
Atom   4O    basis set group =>   2
Atom   5C    basis set group =>   1
Atom   6H    basis set group =>   3
Atom   7H    basis set group =>   3
Atom   8C    basis set group =>   1
Atom   9O    basis set group =>   2
Atom  10N    basis set group =>   4
Atom  11O    basis set group =>   2
Atom  12H    basis set group =>   3
Atom  13H    basis set group =>   3
Atom  14H    basis set group =>   3
Atom  15H    basis set group =>   3
------------------------------------------------------------------------------
                             ORCA STARTUP CALCULATIONS
------------------------------------------------------------------------------
------------------------------------------------------------------------------
                   ___                                                        
                  /   \      - P O W E R E D   B Y -                         
                 /     \                                                     
                 |  |  |   _    _      __       _____    __    __             
                 |  |  |  | |  | |    /  \     |  _  \  |  |  /  |          
                  \  \/   | |  | |   /    \    | | | |  |  | /  /          
                 / \  \   | |__| |  /  /\  \   | |_| |  |  |/  /          
                |  |  |   |  __  | /  /__\  \  |    /   |      \           
                |  |  |   | |  | | |   __   |  |    \   |  |\   \          
                \     /   | |  | | |  |  |  |  | |\  \  |  | \   \       
                 \___/    |_|  |_| |__|  |__|  |_| \__\ |__|  \__/        
                                                                              
                      - O R C A' S   B I G   F R I E N D -                    
                                      &                                       
                       - I N T E G R A L  F E E D E R -                       
                                                                              
 v1 FN, 2020, v2 2021, v3 2022-2024                                           
------------------------------------------------------------------------------


----------------------
SHARK INTEGRAL PACKAGE
----------------------

Number of atoms                             ...     16
Number of basis functions                   ...    161
Number of shells                            ...     75
Maximum angular momentum                    ...      2
Integral batch strategy                     ... SHARK/LIBINT Hybrid
RI-J (if used) integral strategy            ... SPLIT-RIJ (Revised 2003 algorithm where possible)
Printlevel                                  ...      1
Contraction scheme used                     ... SEGMENTED contraction
Prescreening option                         ... SCHWARTZ
   Thresh                                   ... 2.500e-11
   Tcut                                     ... 2.500e-12
   Tpresel                                  ... 2.500e-12 
Coulomb Range Separation                    ... NOT USED
Exchange Range Separation                   ... NOT USED
Multipole approximations                    ... NOT USED
Finite Nucleus Model                        ... NOT USED
CABS basis                                  ... NOT available
Auxiliary Coulomb fitting basis             ... NOT available
Auxiliary J/K fitting basis                 ... NOT available
Auxiliary Correlation fitting basis         ... NOT available
Auxiliary 'external' fitting basis          ... NOT available

Checking pre-screening integrals            ... done (  0.0 sec) Dimension = 75
   => SHARK Basis and OBASIS are compatible. Storing Pre-screening
Shell pair information
Shell pair cut-off parameter TPreSel        ...   2.5e-12
Total number of shell pairs                 ...      2850
Shell pairs after pre-screening             ...      2663
Total number of primitive shell pairs       ...     14745
Primitive shell pairs kept                  ...      9073
          la=0 lb=0:    785 shell pairs
          la=1 lb=0:    951 shell pairs
          la=1 lb=1:    305 shell pairs
          la=2 lb=0:    355 shell pairs
          la=2 lb=1:    222 shell pairs
          la=2 lb=2:     45 shell pairs

Checking whether 4 symmetric matrices of dimension 161 fit in memory
:Max Core in MB      =   4096.00
 MB in use           =      4.91
 MB left             =   4091.09
 MB needed           =      0.40
 Data fit in memory  = YES
Calculating Nuclear repulsion               ... done (  0.0 sec) ENN=    485.791903544724 Eh

Diagonalization of the overlap matrix:
Smallest eigenvalue                        ... 3.073e-03
Time for diagonalization                   ...    0.001 sec
Threshold for overlap eigenvalues          ... 1.000e-07
Number of eigenvalues below threshold      ... 0
Time for construction of square roots      ...    0.000 sec
Total time needed                          ...    0.002 sec

-------------------
DFT GRID GENERATION
-------------------

General Integration Accuracy     IntAcc      ... 4.388
Radial Grid Type                 RadialGrid  ... OptM3 with GC (2021)
Angular Grid (max. ang.)         AngularGrid ... 4 (Lebedev-302)
Angular grid pruning method      GridPruning ... 4 (adaptive)
Weight generation scheme         WeightScheme... mBecke (2022)
Basis function cutoff            BFCut       ... 1.0000e-11
Integration weight cutoff        WCut        ... 1.0000e-14
Partially contracted basis set               ... off
Rotationally invariant grid construction     ... off
Angular grids for H and He will be reduced by one unit

Total number of grid points                  ...    76915
Total number of batches                      ...     1210
Average number of points per batch           ...       63
Average number of grid points per atom       ...     4807
Grids setup in   0.3 sec
Initializing property integral containers    ... done (  0.0 sec)

SHARK setup successfully completed in   0.4 seconds

Maximum memory used throughout the entire STARTUP-calculation: 30.3 MB
-------------------------------------------------------------------------------
                                 ORCA GUESS
                   Start orbitals & Density for SCF / CASSCF
-------------------------------------------------------------------------------

------------
SCF SETTINGS
------------
Hamiltonian:
 Ab initio Hamiltonian  Method          .... Hartree-Fock(GTOs)


General Settings:
 Integral files         IntName         .... 3
 Hartree-Fock type      HFTyp           .... RHF
 Total Charge           Charge          ....    0
 Multiplicity           Mult            ....    1
 Number of Electrons    NEL             ....   70
 Basis Dimension        Dim             ....  161
 Nuclear Repulsion      ENuc            ....    485.7919035447 Eh

Convergence Acceleration:
 AO-DIIS                CNVDIIS         .... on
   Start iteration      DIISMaxIt       ....    12
   Startup error        DIISStart       ....  0.200000
   # of expansion vecs  DIISMaxEq       ....     5
   Bias factor          DIISBfac        ....   1.050
   Max. coefficient     DIISMaxC        ....  10.000
 MO-DIIS                CNVKDIIS        .... off
 Trust-Rad. Augm. Hess. CNVTRAH         .... auto
   Auto Start mean grad. ratio tolernc. ....  1.125000
   Auto Start start iteration           ....    50
   Auto Start num. interpolation iter.  ....    10
   Max. Number of Micro iterations      ....    24
   Max. Number of Macro iterations      .... Maxiter - #DIIS iter
   Number of Davidson start vectors     ....     2
   Converg. threshold    (grad. norm)   ....   1.000e-05
   Grad. Scal. Fac. for Micro threshold ....   0.100
   Minimum threshold for Micro iter.    ....   1.000e-02
   NR start threshold (gradient norm)   ....   1.000e-04
   Initial trust radius                 ....   0.400
   Minimum AH scaling param. (alpha)    ....   1.000
   Maximum AH scaling param. (alpha)    .... 1000.000
   Quad. conv. algorithm                .... NR
   White noise on init. David. guess    .... on
   Maximum white noise                  ....   0.010
   Pseudo random numbers                .... off
   Inactive MOs                         .... canonical
   Orbital update algorithm             .... Taylor
   Preconditioner                       .... Diag
   Full preconditioner red. dimension   ....   250
 SOSCF                 CNVSOSCF           .... on
   Start iteration     SOSCFMaxIt         ....   150
   Startup grad/error  SOSCFStart         ....  0.003300
   Hessian update      SOSCFHessUp        .... L-BFGS
   Autom. constraints  SOSCFAutoConstrain .... off
 Level Shifting         CNVShift        .... on
   Level shift para.    LevelShift      ....    0.2500
   Turn off err/grad.   ShiftErr        ....    0.0010
 Zerner damping         CNVZerner       .... off
 Static damping         CNVDamp         .... on
   Fraction old density DampFac         ....    0.7000
   Max. Damping (<1)    DampMax         ....    0.9800
   Min. Damping (>=0)   DampMin         ....    0.0000
   Turn off err/grad.   DampErr         ....    0.1000

SCF Procedure:
 Maximum # iterations   MaxIter         ....   125
 SCF integral mode      SCFMode         .... Direct
   Integral package                     .... SHARK and LIBINT hybrid scheme
 Reset frequency        DirectResetFreq ....    20
 Integral Threshold     Thresh          ....  2.500e-11 Eh
 Primitive CutOff       TCut            ....  2.500e-12 Eh

Convergence Tolerance:
 Convergence Check Mode ConvCheckMode   .... Total+1el-Energy
 Convergence forced     ConvForced      .... 1
 Energy Change          TolE            ....  1.000e-08 Eh
 1-El. energy change                    ....  1.000e-05 Eh
 Orbital Gradient       TolG            ....  1.000e-05
 Orbital Rotation angle TolX            ....  1.000e-05
 DIIS Error             TolErr          ....  5.000e-07

------------------------------
INITIAL GUESS: MODEL POTENTIAL
------------------------------
Loading Hartree-Fock densities                     ... done
Calculating cut-offs                               ... done
Initializing the effective Hamiltonian             ... done
Setting up the integral package (SHARK)            ... done
Starting the Coulomb interaction                   ... done (   0.0 sec)
Making the grid                                    ... done (   0.1 sec)
Mapping shells                                     ... done
Starting the XC term evaluation                    ... done (   0.0 sec)
Transforming the Hamiltonian                       ... done (   0.0 sec)
Diagonalizing the Hamiltonian                      ... done (   0.0 sec)
Back transforming the eigenvectors                 ... done (   0.0 sec)
Now organizing SCF variables                       ... done
                      ------------------
                      INITIAL GUESS DONE (   0.2 sec)
                      ------------------
             **** ENERGY FILE WAS UPDATED (3.en.tmp) ****
Finished Guess after   0.2 sec
Maximum memory used throughout the entire GUESS-calculation: 9.7 MB

-------------------------------------------------------------------------------------------
                                      ORCA LEAN-SCF
                              memory conserving SCF solver
-------------------------------------------------------------------------------------------

----------------------------------------D-I-I-S--------------------------------------------
Iteration    Energy (Eh)           Delta-E    RMSDP     MaxDP     DIISErr   Damp  Time(sec)
-------------------------------------------------------------------------------------------
               ***  Starting incremental Fock matrix formation  ***
    1    -509.1253774196181894     0.00e+00  2.74e-03  6.43e-02  2.46e-01  0.700   1.3
    2    -509.2613150792218448    -1.36e-01  1.99e-03  4.61e-02  1.50e-01  0.700   1.2
                               ***Turning on AO-DIIS***
    3    -509.3390889194847659    -7.78e-02  1.06e-03  2.06e-02  8.34e-02  0.700   1.2
    4    -509.3880846601640542    -4.90e-02  2.44e-03  4.35e-02  5.88e-02  0.000   1.2
    5    -509.4979236436871588    -1.10e-01  3.35e-04  5.84e-03  5.81e-03  0.000   1.2
                              *** Initializing SOSCF ***
---------------------------------------S-O-S-C-F--------------------------------------
Iteration    Energy (Eh)           Delta-E    RMSDP     MaxDP     MaxGrad    Time(sec)
--------------------------------------------------------------------------------------
    6    -509.4985245368540063    -6.01e-04  1.64e-04  2.22e-03  2.95e-03     1.2
               *** Restarting incremental Fock matrix formation ***
    7    -509.4986718624210198    -1.47e-04  1.08e-04  2.15e-03  1.85e-03     1.3
    8    -509.4987231015210227    -5.12e-05  1.31e-04  1.85e-03  5.22e-04     1.1
    9    -509.4987412619659608    -1.82e-05  2.59e-05  3.81e-04  3.15e-04     1.1
   10    -509.4987434550923808    -2.19e-06  6.35e-06  9.04e-05  5.55e-05     1.0
   11    -509.4987435975257313    -1.42e-07  3.63e-06  6.32e-05  1.50e-05     0.9
   12    -509.4987436223392478    -2.48e-08  6.88e-07  1.80e-05  6.61e-06     0.9
   13    -509.4987436243612819    -2.02e-09  1.92e-07  4.17e-06  1.41e-06     0.8
                 **** Energy Check signals convergence ****

               *****************************************************
               *                     SUCCESS                       *
               *           SCF CONVERGED AFTER  13 CYCLES          *
               *****************************************************

             **** ENERGY FILE WAS UPDATED (3.en.tmp) ****

----------------
TOTAL SCF ENERGY
----------------

Total Energy       :       -509.49874362533535 Eh          -13864.16565 eV

Components:
Nuclear Repulsion  :        485.79190354472439 Eh           13219.06974 eV
Electronic Energy  :       -995.29064717005974 Eh          -27083.23539 eV
One Electron Energy:      -1663.09111182007541 Eh          -45255.00987 eV
Two Electron Energy:        667.80046465001567 Eh           18171.77448 eV

Virial components:
Potential Energy   :      -1018.24597563316229 Eh          -27707.88164 eV
Kinetic Energy     :        508.74723200782688 Eh           13843.71598 eV
Virial Ratio       :          2.00147718074955

---------------
SCF CONVERGENCE
---------------

  Last Energy change         ...    2.0220e-09  Tolerance :   1.0000e-08
  Last MAX-Density change    ...    4.1680e-06  Tolerance :   1.0000e-07
  Last RMS-Density change    ...    1.9179e-07  Tolerance :   5.0000e-09
  Last DIIS Error            ...    2.9504e-03  Tolerance :   5.0000e-07
  Last Orbital Gradient      ...    1.4140e-06  Tolerance :   1.0000e-05
  Last Orbital Rotation      ...    1.7562e-06  Tolerance :   1.0000e-05


----------------
ORBITAL ENERGIES
----------------

  NO   OCC          E(Eh)            E(eV) 
   0   2.0000     -20.626946      -561.2877 
   1   2.0000     -20.624773      -561.2286 
   2   2.0000     -20.563919      -559.5727 
   3   2.0000     -20.562880      -559.5444 
   4   2.0000     -15.545052      -423.0024 
   5   2.0000     -11.399001      -310.1826 
   6   2.0000     -11.390437      -309.9496 
   7   2.0000     -11.291977      -307.2703 
   8   2.0000     -11.259831      -306.3956 
   9   2.0000      -1.480727       -40.2926 
  10   2.0000      -1.475635       -40.1541 
  11   2.0000      -1.373627       -37.3783 
  12   2.0000      -1.370875       -37.3034 
  13   2.0000      -1.203522       -32.7495 
  14   2.0000      -1.057973       -28.7889 
  15   2.0000      -0.946039       -25.7430 
  16   2.0000      -0.851370       -23.1670 
  17   2.0000      -0.801603       -21.8127 
  18   2.0000      -0.724231       -19.7073 
  19   2.0000      -0.715687       -19.4748 
  20   2.0000      -0.704648       -19.1744 
  21   2.0000      -0.689668       -18.7668 
  22   2.0000      -0.676431       -18.4066 
  23   2.0000      -0.642785       -17.4911 
  24   2.0000      -0.625426       -17.0187 
  25   2.0000      -0.603810       -16.4305 
  26   2.0000      -0.596996       -16.2451 
  27   2.0000      -0.564552       -15.3622 
  28   2.0000      -0.557099       -15.1594 
  29   2.0000      -0.527964       -14.3666 
  30   2.0000      -0.488480       -13.2922 
  31   2.0000      -0.486299       -13.2329 
  32   2.0000      -0.459252       -12.4969 
  33   2.0000      -0.454422       -12.3655 
  34   2.0000      -0.401156       -10.9160 
  35   0.0000       0.162480         4.4213 
  36   0.0000       0.180707         4.9173 
  37   0.0000       0.213323         5.8048 
  38   0.0000       0.225355         6.1322 
  39   0.0000       0.250349         6.8123 
  40   0.0000       0.285301         7.7634 
  41   0.0000       0.298147         8.1130 
  42   0.0000       0.314194         8.5496 
  43   0.0000       0.342970         9.3327 
  44   0.0000       0.373971        10.1763 
  45   0.0000       0.410762        11.1774 
*Only the first 10 virtual orbitals were printed.

                    ********************************
                    * MULLIKEN POPULATION ANALYSIS *
                    ********************************

-----------------------
MULLIKEN ATOMIC CHARGES
-----------------------
   0 C :    0.774867
   1 C :   -0.300546
   2 O :   -0.575646
   3 H :    0.375594
   4 O :   -0.629959
   5 C :   -0.039265
   6 H :    0.192689
   7 H :    0.183336
   8 C :    0.778852
   9 O :   -0.575029
  10 N :   -0.694642
  11 O :   -0.632679
  12 H :    0.283340
  13 H :    0.375011
  14 H :    0.172804
  15 H :    0.311273
Sum of atomic charges:   -0.0000000

--------------------------------
MULLIKEN REDUCED ORBITAL CHARGES
--------------------------------
  0 C s       :     2.963391  s :     2.963391
      pz      :     0.862334  p :     2.112742
      px      :     0.616429
      py      :     0.633978
      dz2     :     0.045091  d :     0.149001
      dxz     :     0.030339
      dyz     :     0.018750
      dx2y2   :     0.027925
      dxy     :     0.026896

  1 C s       :     3.259512  s :     3.259512
      pz      :     0.889848  p :     2.996122
      px      :     1.036891
      py      :     1.069383
      dz2     :     0.014999  d :     0.044913
      dxz     :     0.007996
      dyz     :     0.003778
      dx2y2   :     0.008256
      dxy     :     0.009885

  2 O s       :     3.876937  s :     3.876937
      pz      :     1.409929  p :     4.665558
      px      :     1.589008
      py      :     1.666621
      dz2     :     0.011688  d :     0.033151
      dxz     :     0.006804
      dyz     :     0.006017
      dx2y2   :     0.003110
      dxy     :     0.005532

  3 H s       :     0.582780  s :     0.582780
      pz      :     0.010275  p :     0.041626
      px      :     0.008325
      py      :     0.023026

  4 O s       :     3.836269  s :     3.836269
      pz      :     1.459739  p :     4.768153
      px      :     1.548579
      py      :     1.759835
      dz2     :     0.011090  d :     0.025537
      dxz     :     0.001691
      dyz     :     0.000794
      dx2y2   :     0.005446
      dxy     :     0.006516

  5 C s       :     3.214349  s :     3.214349
      pz      :     1.074364  p :     2.753401
      px      :     0.818362
      py      :     0.860675
      dz2     :     0.018437  d :     0.071515
      dxz     :     0.011238
      dyz     :     0.007820
      dx2y2   :     0.015333
      dxy     :     0.018688

  6 H s       :     0.794369  s :     0.794369
      pz      :     0.002176  p :     0.012943
      px      :     0.002472
      py      :     0.008295

  7 H s       :     0.803914  s :     0.803914
      pz      :     0.003450  p :     0.012750
      px      :     0.007081
      py      :     0.002220

  8 C s       :     2.950390  s :     2.950390
      pz      :     0.676174  p :     2.124028
      px      :     0.633647
      py      :     0.814208
      dz2     :     0.030289  d :     0.146730
      dxz     :     0.029712
      dyz     :     0.030003
      dx2y2   :     0.032769
      dxy     :     0.023957

  9 O s       :     3.877946  s :     3.877946
      pz      :     1.593478  p :     4.664274
      px      :     1.578566
      py      :     1.492230
      dz2     :     0.005712  d :     0.032809
      dxz     :     0.008928
      dyz     :     0.007706
      dx2y2   :     0.005942
      dxy     :     0.004522

 10 N s       :     3.599301  s :     3.599301
      pz      :     1.398029  p :     4.061510
      px      :     1.145552
      py      :     1.517929
      dz2     :     0.012936  d :     0.033831
      dxz     :     0.003202
      dyz     :     0.001704
      dx2y2   :     0.003715
      dxy     :     0.012273

 11 O s       :     3.836395  s :     3.836395
      pz      :     1.734820  p :     4.771051
      px      :     1.575874
      py      :     1.460357
      dz2     :     0.003316  d :     0.025233
      dxz     :     0.006615
      dyz     :     0.006198
      dx2y2   :     0.006944
      dxy     :     0.002161

 12 H s       :     0.690480  s :     0.690480
      pz      :     0.005032  p :     0.026180
      px      :     0.010486
      py      :     0.010662

 13 H s       :     0.583546  s :     0.583546
      pz      :     0.026303  p :     0.041443
      px      :     0.007082
      py      :     0.008058

 14 H s       :     0.815002  s :     0.815002
      pz      :     0.009330  p :     0.012194
      px      :     0.001227
      py      :     0.001637

 15 H s       :     0.661808  s :     0.661808
      pz      :     0.015316  p :     0.026920
      px      :     0.003825
      py      :     0.007779



                     *******************************
                     * LOEWDIN POPULATION ANALYSIS *
                     *******************************

----------------------
LOEWDIN ATOMIC CHARGES
----------------------
   0 C :    0.239362
   1 C :   -0.122805
   2 O :   -0.297583
   3 H :    0.203567
   4 O :   -0.203524
   5 C :   -0.013898
   6 H :    0.102232
   7 H :    0.093954
   8 C :    0.217451
   9 O :   -0.300715
  10 N :   -0.279063
  11 O :   -0.206642
  12 H :    0.135434
  13 H :    0.203379
  14 H :    0.086545
  15 H :    0.142305

-------------------------------
LOEWDIN REDUCED ORBITAL CHARGES
-------------------------------
  0 C s       :     2.839556  s :     2.839556
      pz      :     1.031345  p :     2.600590
      px      :     0.843769
      py      :     0.725476
      dz2     :     0.097652  d :     0.320491
      dxz     :     0.064509
      dyz     :     0.037611
      dx2y2   :     0.058430
      dxy     :     0.062289

  1 C s       :     2.897874  s :     2.897874
      pz      :     1.007642  p :     3.140082
      px      :     1.059169
      py      :     1.073271
      dz2     :     0.029985  d :     0.084849
      dxz     :     0.015552
      dyz     :     0.007574
      dx2y2   :     0.014073
      dxy     :     0.017666

  2 O s       :     3.547095  s :     3.547095
      pz      :     1.452679  p :     4.692563
      px      :     1.581628
      py      :     1.658255
      dz2     :     0.014605  d :     0.057925
      dxz     :     0.014607
      dyz     :     0.014251
      dx2y2   :     0.005866
      dxy     :     0.008597

  3 H s       :     0.675968  s :     0.675968
      pz      :     0.031895  p :     0.120464
      px      :     0.024988
      py      :     0.063581

  4 O s       :     3.458829  s :     3.458829
      pz      :     1.428831  p :     4.696502
      px      :     1.543662
      py      :     1.724008
      dz2     :     0.018614  d :     0.048194
      dxz     :     0.007242
      dyz     :     0.002057
      dx2y2   :     0.008700
      dxy     :     0.011580

  5 C s       :     2.868866  s :     2.868866
      pz      :     1.056106  p :     3.002281
      px      :     0.959544
      py      :     0.986630
      dz2     :     0.034655  d :     0.142751
      dxz     :     0.021835
      dyz     :     0.015509
      dx2y2   :     0.031910
      dxy     :     0.038842

  6 H s       :     0.855715  s :     0.855715
      pz      :     0.007715  p :     0.042053
      px      :     0.008849
      py      :     0.025489

  7 H s       :     0.863745  s :     0.863745
      pz      :     0.012015  p :     0.042301
      px      :     0.021786
      py      :     0.008500

  8 C s       :     2.849907  s :     2.849907
      pz      :     0.859595  p :     2.613999
      px      :     0.808934
      py      :     0.945470
      dz2     :     0.060193  d :     0.318643
      dxz     :     0.071617
      dyz     :     0.065084
      dx2y2   :     0.072512
      dxy     :     0.049238

  9 O s       :     3.546766  s :     3.546766
      pz      :     1.628311  p :     4.696278
      px      :     1.586816
      py      :     1.481150
      dz2     :     0.011609  d :     0.057671
      dxz     :     0.018324
      dyz     :     0.011809
      dx2y2   :     0.007610
      dxy     :     0.008319

 10 N s       :     3.179525  s :     3.179525
      pz      :     1.370376  p :     4.039416
      px      :     1.185216
      py      :     1.483824
      dz2     :     0.019512  d :     0.060122
      dxz     :     0.007373
      dyz     :     0.003767
      dx2y2   :     0.008157
      dxy     :     0.021314

 11 O s       :     3.455593  s :     3.455593
      pz      :     1.706238  p :     4.702863
      px      :     1.566756
      py      :     1.429869
      dz2     :     0.005705  d :     0.048186
      dxz     :     0.011421
      dyz     :     0.009400
      dx2y2   :     0.012463
      dxy     :     0.009197

 12 H s       :     0.782472  s :     0.782472
      pz      :     0.016195  p :     0.082094
      px      :     0.031372
      py      :     0.034528

 13 H s       :     0.676567  s :     0.676567
      pz      :     0.072922  p :     0.120054
      px      :     0.022002
      py      :     0.025130

 14 H s       :     0.873919  s :     0.873919
      pz      :     0.028070  p :     0.039536
      px      :     0.005382
      py      :     0.006084

 15 H s       :     0.772143  s :     0.772143
      pz      :     0.048445  p :     0.085552
      px      :     0.012624
      py      :     0.024483



                      *****************************
                      * MAYER POPULATION ANALYSIS *
                      *****************************

  NA   - Mulliken gross atomic population
  ZA   - Total nuclear charge
  QA   - Mulliken gross atomic charge
  VA   - Mayer's total valence
  BVA  - Mayer's bonded valence
  FA   - Mayer's free valence

  ATOM       NA         ZA         QA         VA         BVA        FA
  0 C      5.2251     6.0000     0.7749     3.7097     3.7097     0.0000
  1 C      6.3005     6.0000    -0.3005     3.7310     3.7310    -0.0000
  2 O      8.5756     8.0000    -0.5756     1.9047     1.9047    -0.0000
  3 H      0.6244     1.0000     0.3756     0.8691     0.8691     0.0000
  4 O      8.6300     8.0000    -0.6300     1.8434     1.8434    -0.0000
  5 C      6.0393     6.0000    -0.0393     3.7863     3.7863    -0.0000
  6 H      0.8073     1.0000     0.1927     0.9402     0.9402    -0.0000
  7 H      0.8167     1.0000     0.1833     0.9407     0.9407    -0.0000
  8 C      5.2211     6.0000     0.7789     3.6820     3.6820    -0.0000
  9 O      8.5750     8.0000    -0.5750     1.8877     1.8877     0.0000
 10 N      7.6946     7.0000    -0.6946     2.7522     2.7522    -0.0000
 11 O      8.6327     8.0000    -0.6327     1.8216     1.8216    -0.0000
 12 H      0.7167     1.0000     0.2833     0.9060     0.9060    -0.0000
 13 H      0.6250     1.0000     0.3750     0.8693     0.8693     0.0000
 14 H      0.8272     1.0000     0.1728     0.9358     0.9358    -0.0000
 15 H      0.6887     1.0000     0.3113     0.9006     0.9006    -0.0000

  Mayer bond orders larger than 0.100000
B(  0-C ,  1-C ) :   0.9255 B(  0-C ,  4-O ) :   0.9829 B(  0-C ,  9-O ) :   1.8079 
B(  1-C ,  5-C ) :   0.9609 B(  1-C ,  6-H ) :   0.9535 B(  1-C ,  7-H ) :   0.9520 
B(  2-O ,  8-C ) :   1.8319 B(  3-H , 11-O ) :   0.8380 B(  4-O , 13-H ) :   0.8384 
B(  5-C ,  8-C ) :   0.9060 B(  5-C , 10-N ) :   1.0005 B(  5-C , 14-H ) :   0.9548 
B(  8-C , 11-O ) :   0.9681 B( 10-N , 12-H ) :   0.9039 B( 10-N , 15-H ) :   0.8727 


-------
TIMINGS
-------

Total SCF time: 0 days 0 hours 0 min 15 sec 

Total time                  ....      15.108 sec
Sum of individual times     ....      14.421 sec  ( 95.5%)

SCF preparation             ....       0.020 sec  (  0.1%)
Fock matrix formation       ....      14.362 sec  ( 95.1%)
  Startup                   ....       0.001 sec  (  0.0% of F)
  Coulomb+Exchange Fock     ....      15.036 sec  (104.7% of F)
Diagonalization             ....       0.000 sec  (  0.0%)
Density matrix formation    ....       0.003 sec  (  0.0%)
Total Energy calculation    ....       0.001 sec  (  0.0%)
Population analysis         ....       0.002 sec  (  0.0%)
Orbital Transformation      ....       0.004 sec  (  0.0%)
Orbital Orthonormalization  ....       0.000 sec  (  0.0%)
DIIS solution               ....       0.017 sec  (  0.1%)
SOSCF solution              ....       0.011 sec  (  0.1%)
Finished LeanSCF after  15.1 sec

Maximum memory used throughout the entire LEANSCF-calculation: 13.3 MB

------------------------------------------------------------------------------
                                ORCA  MP2 
------------------------------------------------------------------------------

Freezing NCore=18 chemical core electrons
MP2 will be done in the AO integral direct mode
The Q1-step will be done using symmetric double matrices
Dimension of the basis                    ...  161
Memory devoted for MP2                    ... 4096 MB   
Memory needed for all in one shot         ...  417 MB
Number of MOs that can be treated together...  254      
MP2 density construction                  ... relaxed
The MP2 gradient is requested => amplitudes will be stored on disk
Total number of MOs              ...   26
Number of MOs treated per batch  ...   26 
Number of batches necessary      ...    1 
OPERATORS   0/  0 PASS   0
-----------------------------------------------
 MP2 CORRELATION ENERGY   :     -1.403266748 Eh
-----------------------------------------------


---------------------
MP2 DENSITY FORMATION
---------------------

Completing the external part of the density      ... done
Storing the unrelaxed density                    ... done

Calculating G(D)                                 ... done
Completing the Lagrangian                        ... done
Solving the Z-vector equations                   ... 
-------------------
SHARK CP-SCF DRIVER
-------------------

Dimension of the orbital basis          ...    161
Dimension of the CPSCF-problem          ...   4410
Number of operators                     ...      1
Max. number of iterations               ...    128
Convergence Tolerance                   ... 1.0e-04
Number of perturbations                 ...      1
Perturbation type                       ... REAL

----------------------------
POPLE LINEAR EQUATION SOLVER
----------------------------

  ITERATION   0:   ||err||_max =   1.6339e-01 (   1.6 sec)
  ITERATION   1:   ||err||_max =   4.0456e-02 (   1.6 sec)
  ITERATION   2:   ||err||_max =   1.8033e-02 (   1.6 sec)
  ITERATION   3:   ||err||_max =   4.3794e-03 (   1.6 sec)
  ITERATION   4:   ||err||_max =   1.3353e-03 (   1.7 sec)
  ITERATION   5:   ||err||_max =   3.5573e-04 (   1.6 sec)
  ITERATION   6:   ||err||_max =   1.1233e-04 (   1.7 sec)
  ITERATION   7:   ||err||_max =   4.0144e-05 (   1.7 sec)
                                                 ... done
Finalizing the relaxed density                   ... done
Transforming P to the AO basis                   ... done
Storing the relaxed density                      ... done

------------------------------------
ENERGY WEIGHTED DENSITY FINALIZATION
------------------------------------

Gathering the parts of the W-matrix              ...                                                      done
Forming the Z-density                            ... done
Transforming Z to the AO basis                   ... done
Calculating G(Z)                                 ... done
Finalizing the W-matrix                          ...                                                      done
Transforming W to the AO basis and storing       ... done

                *********************************************
                * UNRELAXED MP2 DENSITY POPULATION ANALYSIS *
                *********************************************

------------------------------------------------------------------------------
                           ORCA POPULATION ANALYSIS
------------------------------------------------------------------------------
Input electron density              ... 3.pmp2ur
BaseName (.gbw .S,...)              ... 3

                    ********************************
                    * MULLIKEN POPULATION ANALYSIS *
                    ********************************

-----------------------
MULLIKEN ATOMIC CHARGES
-----------------------
   0 C :    0.741868
   1 C :   -0.301187
   2 O :   -0.552635
   3 H :    0.372419
   4 O :   -0.616139
   5 C :   -0.044931
   6 H :    0.193032
   7 H :    0.183697
   8 C :    0.745421
   9 O :   -0.552118
  10 N :   -0.686729
  11 O :   -0.618967
  12 H :    0.281955
  13 H :    0.371826
  14 H :    0.173398
  15 H :    0.309089
Sum of atomic charges:   -0.0000000

--------------------------------
MULLIKEN REDUCED ORBITAL CHARGES
--------------------------------
  0 C s       :     2.964923  s :     2.964923
      pz      :     0.860561  p :     2.133782
      px      :     0.625058
      py      :     0.648164
      dz2     :     0.047285  d :     0.159427
      dxz     :     0.032636
      dyz     :     0.021139
      dx2y2   :     0.029741
      dxy     :     0.028626
  1 C s       :     3.256255  s :     3.256255
      pz      :     0.887532  p :     2.983343
      px      :     1.031872
      py      :     1.063940
      dz2     :     0.017792  d :     0.061589
      dxz     :     0.011476
      dyz     :     0.007472
      dx2y2   :     0.011779
      dxy     :     0.013071
  2 O s       :     3.872280  s :     3.872280
      pz      :     1.398029  p :     4.625680
      px      :     1.575111
      py      :     1.652540
      dz2     :     0.015830  d :     0.054675
      dxz     :     0.010981
      dyz     :     0.010321
      dx2y2   :     0.007703
      dxy     :     0.009840
  3 H s       :     0.584823  s :     0.584823
      pz      :     0.010827  p :     0.042757
      px      :     0.008880
      py      :     0.023051
  4 O s       :     3.832060  s :     3.832060
      pz      :     1.451064  p :     4.735624
      px      :     1.537867
      py      :     1.746693
      dz2     :     0.015506  d :     0.048455
      dxz     :     0.006362
      dyz     :     0.005414
      dx2y2   :     0.010128
      dxy     :     0.011044
  5 C s       :     3.211320  s :     3.211320
      pz      :     1.070145  p :     2.746671
      px      :     0.817400
      py      :     0.859126
      dz2     :     0.021424  d :     0.086939
      dxz     :     0.014419
      dyz     :     0.011065
      dx2y2   :     0.018385
      dxy     :     0.021647
  6 H s       :     0.791453  s :     0.791453
      pz      :     0.003152  p :     0.015515
      px      :     0.003433
      py      :     0.008930
  7 H s       :     0.800930  s :     0.800930
      pz      :     0.004371  p :     0.015373
      px      :     0.007797
      py      :     0.003205
  8 C s       :     2.952170  s :     2.952170
      pz      :     0.684247  p :     2.145089
      px      :     0.643886
      py      :     0.816956
      dz2     :     0.032182  d :     0.157319
      dxz     :     0.031577
      dyz     :     0.032326
      dx2y2   :     0.035095
      dxy     :     0.026140
  9 O s       :     3.873372  s :     3.873372
      pz      :     1.581619  p :     4.624306
      px      :     1.565557
      py      :     1.477131
      dz2     :     0.010369  d :     0.054440
      dxz     :     0.013085
      dyz     :     0.011924
      dx2y2   :     0.010250
      dxy     :     0.008812
 10 N s       :     3.594744  s :     3.594744
      pz      :     1.389257  p :     4.036085
      px      :     1.139329
      py      :     1.507498
      dz2     :     0.017244  d :     0.055900
      dxz     :     0.007634
      dyz     :     0.006316
      dx2y2   :     0.008168
      dxy     :     0.016538
 11 O s       :     3.832192  s :     3.832192
      pz      :     1.722594  p :     4.738511
      px      :     1.564787
      py      :     1.451129
      dz2     :     0.007954  d :     0.048264
      dxz     :     0.011093
      dyz     :     0.010736
      dx2y2   :     0.011654
      dxy     :     0.006826
 12 H s       :     0.689879  s :     0.689879
      pz      :     0.005886  p :     0.028166
      px      :     0.011012
      py      :     0.011269
 13 H s       :     0.585603  s :     0.585603
      pz      :     0.026221  p :     0.042571
      px      :     0.007666
      py      :     0.008684
 14 H s       :     0.811743  s :     0.811743
      pz      :     0.009940  p :     0.014859
      px      :     0.002245
      py      :     0.002674
 15 H s       :     0.662050  s :     0.662050
      pz      :     0.015627  p :     0.028861
      px      :     0.004699
      py      :     0.008535


                     *******************************
                     * LOEWDIN POPULATION ANALYSIS *
                     *******************************

----------------------
LOEWDIN ATOMIC CHARGES
----------------------
   0 C :    0.215199
   1 C :   -0.123215
   2 O :   -0.279087
   3 H :    0.201234
   4 O :   -0.194661
   5 C :   -0.017856
   6 H :    0.102226
   7 H :    0.093986
   8 C :    0.193310
   9 O :   -0.282094
  10 N :   -0.274584
  11 O :   -0.198010
  12 H :    0.134660
  13 H :    0.201062
  14 H :    0.086677
  15 H :    0.141155

-------------------------------
LOEWDIN REDUCED ORBITAL CHARGES
-------------------------------
  0 C s       :     2.840368  s :     2.840368
      pz      :     1.027122  p :     2.612611
      px      :     0.848257
      py      :     0.737232
      dz2     :     0.099613  d :     0.331823
      dxz     :     0.067345
      dyz     :     0.040253
      dx2y2   :     0.060117
      dxy     :     0.064495
  1 C s       :     2.897531  s :     2.897531
      pz      :     1.002489  p :     3.121494
      px      :     1.052485
      py      :     1.066520
      dz2     :     0.033496  d :     0.104189
      dxz     :     0.019510
      dyz     :     0.011603
      dx2y2   :     0.018080
      dxy     :     0.021501
  2 O s       :     3.544070  s :     3.544070
      pz      :     1.440483  p :     4.652997
      px      :     1.568094
      py      :     1.644420
      dz2     :     0.019401  d :     0.082021
      dxz     :     0.019537
      dyz     :     0.019216
      dx2y2   :     0.010537
      dxy     :     0.013331
  3 H s       :     0.675871  s :     0.675871
      pz      :     0.032708  p :     0.122895
      px      :     0.025659
      py      :     0.064528
  4 O s       :     3.456871  s :     3.456871
      pz      :     1.420248  p :     4.665177
      px      :     1.533513
      py      :     1.711415
      dz2     :     0.023737  d :     0.072613
      dxz     :     0.011880
      dyz     :     0.006568
      dx2y2   :     0.013728
      dxy     :     0.016700
  5 C s       :     2.869269  s :     2.869269
      pz      :     1.050551  p :     2.988044
      px      :     0.955359
      py      :     0.982134
      dz2     :     0.038358  d :     0.160544
      dxz     :     0.025312
      dyz     :     0.019147
      dx2y2   :     0.035351
      dxy     :     0.042375
  6 H s       :     0.851289  s :     0.851289
      pz      :     0.009033  p :     0.046485
      px      :     0.010161
      py      :     0.027291
  7 H s       :     0.859195  s :     0.859195
      pz      :     0.013486  p :     0.046819
      px      :     0.023512
      py      :     0.009820
  8 C s       :     2.850666  s :     2.850666
      pz      :     0.864937  p :     2.625876
      px      :     0.815527
      py      :     0.945413
      dz2     :     0.061866  d :     0.330147
      dxz     :     0.074166
      dyz     :     0.067846
      dx2y2   :     0.074491
      dxy     :     0.051778
  9 O s       :     3.543712  s :     3.543712
      pz      :     1.616024  p :     4.656492
      px      :     1.573838
      py      :     1.466630
      dz2     :     0.016494  d :     0.081891
      dxz     :     0.023545
      dyz     :     0.016622
      dx2y2   :     0.012236
      dxy     :     0.012993
 10 N s       :     3.177779  s :     3.177779
      pz      :     1.361477  p :     4.012621
      px      :     1.177840
      py      :     1.473304
      dz2     :     0.024483  d :     0.084184
      dxz     :     0.011992
      dyz     :     0.008573
      dx2y2   :     0.012845
      dxy     :     0.026291
 11 O s       :     3.453692  s :     3.453692
      pz      :     1.694586  p :     4.671586
      px      :     1.556189
      py      :     1.420811
      dz2     :     0.010405  d :     0.072732
      dxz     :     0.016397
      dyz     :     0.014248
      dx2y2   :     0.017564
      dxy     :     0.014118
 12 H s       :     0.779594  s :     0.779594
      pz      :     0.017143  p :     0.085746
      px      :     0.032655
      py      :     0.035948
 13 H s       :     0.676464  s :     0.676464
      pz      :     0.074012  p :     0.122474
      px      :     0.022691
      py      :     0.025771
 14 H s       :     0.869069  s :     0.869069
      pz      :     0.030038  p :     0.044254
      px      :     0.006762
      py      :     0.007454
 15 H s       :     0.769742  s :     0.769742
      pz      :     0.050022  p :     0.089103
      px      :     0.013709
      py      :     0.025371


                      *****************************
                      * MAYER POPULATION ANALYSIS *
                      *****************************

  NA   - Mulliken gross atomic population
  ZA   - Total nuclear charge
  QA   - Mulliken gross atomic charge
  VA   - Mayer's total valence
  BVA  - Mayer's bonded valence
  FA   - Mayer's free valence

  ATOM       NA         ZA         QA         VA         BVA        FA
  0 C      5.2581     6.0000     0.7419     3.7726     3.4833     0.2893
  1 C      6.3012     6.0000    -0.3012     3.8209     3.5517     0.2691
  2 O      8.5526     8.0000    -0.5526     2.1684     1.7701     0.3982
  3 H      0.6276     1.0000     0.3724     0.8760     0.8321     0.0439
  4 O      8.6161     8.0000    -0.6161     2.1017     1.7445     0.3572
  5 C      6.0449     6.0000    -0.0449     3.8611     3.5813     0.2798
  6 H      0.8070     1.0000     0.1930     0.9477     0.9018     0.0458
  7 H      0.8163     1.0000     0.1837     0.9485     0.9026     0.0459
  8 C      5.2546     6.0000     0.7454     3.7462     3.4535     0.2927
  9 O      8.5521     8.0000    -0.5521     2.1522     1.7544     0.3979
 10 N      7.6867     7.0000    -0.6867     2.9461     2.6209     0.3252
 11 O      8.6190     8.0000    -0.6190     2.0801     1.7243     0.3558
 12 H      0.7180     1.0000     0.2820     0.9130     0.8677     0.0453
 13 H      0.6282     1.0000     0.3718     0.8761     0.8322     0.0440
 14 H      0.8266     1.0000     0.1734     0.9439     0.8961     0.0477
 15 H      0.6909     1.0000     0.3091     0.9078     0.8631     0.0447

  Mayer bond orders larger than 0.100000
B(  0-C ,  1-C ) :   0.8770 B(  0-C ,  4-O ) :   0.9286 B(  0-C ,  9-O ) :   1.6882 
B(  1-C ,  5-C ) :   0.9068 B(  1-C ,  6-H ) :   0.9174 B(  1-C ,  7-H ) :   0.9158 
B(  2-O ,  8-C ) :   1.7112 B(  3-H , 11-O ) :   0.8034 B(  4-O , 13-H ) :   0.8037 
B(  5-C ,  8-C ) :   0.8561 B(  5-C , 10-N ) :   0.9439 B(  5-C , 14-H ) :   0.9177 
B(  8-C , 11-O ) :   0.9146 B( 10-N , 12-H ) :   0.8675 B( 10-N , 15-H ) :   0.8376 



                *******************************************
                * RELAXED MP2 DENSITY POPULATION ANALYSIS *
                *******************************************

------------------------------------------------------------------------------
                           ORCA POPULATION ANALYSIS
------------------------------------------------------------------------------
Input electron density              ... 3.pmp2re
BaseName (.gbw .S,...)              ... 3

                    ********************************
                    * MULLIKEN POPULATION ANALYSIS *
                    ********************************

-----------------------
MULLIKEN ATOMIC CHARGES
-----------------------
   0 C :    0.561659
   1 C :   -0.287906
   2 O :   -0.425937
   3 H :    0.346081
   4 O :   -0.516898
   5 C :   -0.053753
   6 H :    0.175184
   7 H :    0.165105
   8 C :    0.556533
   9 O :   -0.424175
  10 N :   -0.623712
  11 O :   -0.519875
  12 H :    0.264085
  13 H :    0.345560
  14 H :    0.155357
  15 H :    0.282694
Sum of atomic charges:   -0.0000000

--------------------------------
MULLIKEN REDUCED ORBITAL CHARGES
--------------------------------
  0 C s       :     2.980862  s :     2.980862
      pz      :     0.872768  p :     2.307638
      px      :     0.692350
      py      :     0.742520
      dz2     :     0.044444  d :     0.149841
      dxz     :     0.030390
      dyz     :     0.019444
      dx2y2   :     0.028154
      dxy     :     0.027409
  1 C s       :     3.235228  s :     3.235228
      pz      :     0.922527  p :     2.997004
      px      :     1.023796
      py      :     1.050682
      dz2     :     0.014849  d :     0.055674
      dxz     :     0.010784
      dyz     :     0.007636
      dx2y2   :     0.011123
      dxy     :     0.011283
  2 O s       :     3.846239  s :     3.846239
      pz      :     1.377905  p :     4.527913
      px      :     1.536868
      py      :     1.613139
      dz2     :     0.014219  d :     0.051786
      dxz     :     0.010522
      dyz     :     0.010104
      dx2y2   :     0.007902
      dxy     :     0.009039
  3 H s       :     0.613008  s :     0.613008
      pz      :     0.010840  p :     0.040911
      px      :     0.009109
      py      :     0.020962
  4 O s       :     3.814691  s :     3.814691
      pz      :     1.422086  p :     4.655232
      px      :     1.523055
      py      :     1.710090
      dz2     :     0.014393  d :     0.046976
      dxz     :     0.006746
      dyz     :     0.005525
      dx2y2   :     0.010004
      dxy     :     0.010308
  5 C s       :     3.189854  s :     3.189854
      pz      :     1.055597  p :     2.783979
      px      :     0.834362
      py      :     0.894020
      dz2     :     0.019753  d :     0.079920
      dxz     :     0.013469
      dyz     :     0.010160
      dx2y2   :     0.016734
      dxy     :     0.019805
  6 H s       :     0.810105  s :     0.810105
      pz      :     0.003279  p :     0.014711
      px      :     0.003520
      py      :     0.007912
  7 H s       :     0.820304  s :     0.820304
      pz      :     0.004258  p :     0.014591
      px      :     0.006998
      py      :     0.003334
  8 C s       :     2.973644  s :     2.973644
      pz      :     0.746857  p :     2.322069
      px      :     0.718212
      py      :     0.857000
      dz2     :     0.029129  d :     0.147754
      dxz     :     0.030252
      dyz     :     0.030864
      dx2y2   :     0.033498
      dxy     :     0.024012
  9 O s       :     3.849951  s :     3.849951
      pz      :     1.562542  p :     4.522597
      px      :     1.531724
      py      :     1.428331
      dz2     :     0.010723  d :     0.051627
      dxz     :     0.011792
      dyz     :     0.010869
      dx2y2   :     0.009645
      dxy     :     0.008598
 10 N s       :     3.575083  s :     3.575083
      pz      :     1.365658  p :     3.995662
      px      :     1.139699
      py      :     1.490305
      dz2     :     0.016246  d :     0.052967
      dxz     :     0.007251
      dyz     :     0.006365
      dx2y2   :     0.007883
      dxy     :     0.015221
 11 O s       :     3.815135  s :     3.815135
      pz      :     1.694095  p :     4.657918
      px      :     1.542695
      py      :     1.421127
      dz2     :     0.008255  d :     0.046822
      dxz     :     0.010363
      dyz     :     0.010175
      dx2y2   :     0.011165
      dxy     :     0.006864
 12 H s       :     0.708883  s :     0.708883
      pz      :     0.006228  p :     0.027032
      px      :     0.010200
      py      :     0.010604
 13 H s       :     0.613749  s :     0.613749
      pz      :     0.023625  p :     0.040691
      px      :     0.008023
      py      :     0.009043
 14 H s       :     0.830618  s :     0.830618
      pz      :     0.008679  p :     0.014025
      px      :     0.002406
      py      :     0.002939
 15 H s       :     0.689707  s :     0.689707
      pz      :     0.013933  p :     0.027599
      px      :     0.005057
      py      :     0.008609


                     *******************************
                     * LOEWDIN POPULATION ANALYSIS *
                     *******************************

----------------------
LOEWDIN ATOMIC CHARGES
----------------------
   0 C :    0.137296
   1 C :   -0.138882
   2 O :   -0.210304
   3 H :    0.190968
   4 O :   -0.158450
   5 C :   -0.036185
   6 H :    0.100604
   7 H :    0.093847
   8 C :    0.115352
   9 O :   -0.212030
  10 N :   -0.263233
  11 O :   -0.163046
  12 H :    0.132034
  13 H :    0.190867
  14 H :    0.086095
  15 H :    0.135068

-------------------------------
LOEWDIN REDUCED ORBITAL CHARGES
-------------------------------
  0 C s       :     2.842701  s :     2.842701
      pz      :     1.016529  p :     2.695219
      px      :     0.873472
      py      :     0.805218
      dz2     :     0.098084  d :     0.324784
      dxz     :     0.066101
      dyz     :     0.038197
      dx2y2   :     0.058346
      dxy     :     0.064056
  1 C s       :     2.900720  s :     2.900720
      pz      :     1.020160  p :     3.139789
      px      :     1.054264
      py      :     1.065365
      dz2     :     0.029989  d :     0.098372
      dxz     :     0.018802
      dyz     :     0.012061
      dx2y2   :     0.017730
      dxy     :     0.019790
  2 O s       :     3.546330  s :     3.546330
      pz      :     1.425097  p :     4.582457
      px      :     1.541146
      py      :     1.616214
      dz2     :     0.019257  d :     0.081517
      dxz     :     0.019281
      dyz     :     0.019075
      dx2y2   :     0.010914
      dxy     :     0.012990
  3 H s       :     0.688323  s :     0.688323
      pz      :     0.032619  p :     0.120709
      px      :     0.025718
      py      :     0.062371
  4 O s       :     3.462802  s :     3.462802
      pz      :     1.409895  p :     4.622275
      px      :     1.528136
      py      :     1.684244
      dz2     :     0.023398  d :     0.073372
      dxz     :     0.012046
      dyz     :     0.006643
      dx2y2   :     0.014451
      dxy     :     0.016834
  5 C s       :     2.872905  s :     2.872905
      pz      :     1.053769  p :     3.009230
      px      :     0.957589
      py      :     0.997873
      dz2     :     0.037135  d :     0.154050
      dxz     :     0.024548
      dyz     :     0.018264
      dx2y2   :     0.033472
      dxy     :     0.040631
  6 H s       :     0.853392  s :     0.853392
      pz      :     0.009350  p :     0.046004
      px      :     0.010230
      py      :     0.026424
  7 H s       :     0.859698  s :     0.859698
      pz      :     0.013667  p :     0.046455
      px      :     0.022906
      py      :     0.009882
  8 C s       :     2.854452  s :     2.854452
      pz      :     0.898498  p :     2.706611
      px      :     0.852469
      py      :     0.955644
      dz2     :     0.058142  d :     0.323585
      dxz     :     0.074005
      dyz     :     0.067743
      dx2y2   :     0.073540
      dxy     :     0.050155
  9 O s       :     3.546022  s :     3.546022
      pz      :     1.603457  p :     4.584577
      px      :     1.551891
      py      :     1.429229
      dz2     :     0.017093  d :     0.081431
      dxz     :     0.022544
      dyz     :     0.016257
      dx2y2   :     0.012424
      dxy     :     0.013114
 10 N s       :     3.179057  s :     3.179057
      pz      :     1.355494  p :     4.002140
      px      :     1.179986
      py      :     1.466660
      dz2     :     0.023947  d :     0.082037
      dxz     :     0.011640
      dyz     :     0.008611
      dx2y2   :     0.012546
      dxy     :     0.025293
 11 O s       :     3.459597  s :     3.459597
      pz      :     1.676830  p :     4.629826
      px      :     1.545155
      py      :     1.407842
      dz2     :     0.010960  d :     0.073623
      dxz     :     0.016365
      dyz     :     0.014186
      dx2y2   :     0.017872
      dxy     :     0.014239
 12 H s       :     0.783446  s :     0.783446
      pz      :     0.017169  p :     0.084520
      px      :     0.031783
      py      :     0.035569
 13 H s       :     0.688938  s :     0.688938
      pz      :     0.071507  p :     0.120195
      px      :     0.022964
      py      :     0.025724
 14 H s       :     0.869961  s :     0.869961
      pz      :     0.028934  p :     0.043944
      px      :     0.007024
      py      :     0.007986
 15 H s       :     0.777361  s :     0.777361
      pz      :     0.048421  p :     0.087571
      px      :     0.014026
      py      :     0.025125


                      *****************************
                      * MAYER POPULATION ANALYSIS *
                      *****************************

  NA   - Mulliken gross atomic population
  ZA   - Total nuclear charge
[...]
      dxy     :     0.019655
  9 O s       :     3.864989  s :     3.864989
      pz      :     1.573302  p :     4.516544
      px      :     1.512417
      py      :     1.430825
      dz2     :     0.010264  d :     0.050754
      dxz     :     0.011166
      dyz     :     0.010706
      dx2y2   :     0.010158
      dxy     :     0.008460
 10 N s       :     3.583492  s :     3.583492
      pz      :     1.317375  p :     3.974141
      px      :     1.124902
      py      :     1.531864
      dz2     :     0.017350  d :     0.053639
      dxz     :     0.007049
      dyz     :     0.005672
      dx2y2   :     0.007733
      dxy     :     0.015834
 11 O s       :     3.828624  s :     3.828624
      pz      :     1.656145  p :     4.646912
      px      :     1.568014
      py      :     1.422753
      dz2     :     0.008553  d :     0.047603
      dxz     :     0.010807
      dyz     :     0.011690
      dx2y2   :     0.009956
      dxy     :     0.006596
 12 H s       :     0.710910  s :     0.710910
      pz      :     0.006071  p :     0.027014
      px      :     0.010389
      py      :     0.010554
 13 H s       :     0.614298  s :     0.614298
      pz      :     0.023712  p :     0.040577
      px      :     0.008050
      py      :     0.008815
 14 H s       :     0.827066  s :     0.827066
      pz      :     0.008751  p :     0.014129
      px      :     0.002417
      py      :     0.002962
 15 H s       :     0.693307  s :     0.693307
      pz      :     0.014177  p :     0.027426
      px      :     0.005019
      py      :     0.008230


                     *******************************
                     * LOEWDIN POPULATION ANALYSIS *
                     *******************************

----------------------
LOEWDIN ATOMIC CHARGES
----------------------
   0 C :    0.155858
   1 C :   -0.137216
   2 O :   -0.221325
   3 H :    0.190248
   4 O :   -0.171227
   5 C :   -0.036803
   6 H :    0.101602
   7 H :    0.093909
   8 C :    0.135749
   9 O :   -0.222317
  10 N :   -0.258692
  11 O :   -0.174560
  12 H :    0.131558
  13 H :    0.190510
  14 H :    0.087645
  15 H :    0.135063

-------------------------------
LOEWDIN REDUCED ORBITAL CHARGES
-------------------------------
  0 C s       :     2.852690  s :     2.852690
      pz      :     1.009684  p :     2.684600
      px      :     0.853058
      py      :     0.821858
      dz2     :     0.090913  d :     0.306853
      dxz     :     0.056865
      dyz     :     0.042985
      dx2y2   :     0.052588
      dxy     :     0.063501
  1 C s       :     2.899876  s :     2.899876
      pz      :     1.021198  p :     3.138356
      px      :     1.053328
      py      :     1.063830
      dz2     :     0.029820  d :     0.098984
      dxz     :     0.019081
      dyz     :     0.012627
      dx2y2   :     0.017434
      dxy     :     0.020022
  2 O s       :     3.560663  s :     3.560663
      pz      :     1.431320  p :     4.581600
      px      :     1.524978
      py      :     1.625302
      dz2     :     0.021244  d :     0.079063
      dxz     :     0.018460
      dyz     :     0.019749
      dx2y2   :     0.009115
      dxy     :     0.010495
  3 H s       :     0.689300  s :     0.689300
      pz      :     0.034663  p :     0.120452
      px      :     0.026164
      py      :     0.059624
  4 O s       :     3.483248  s :     3.483248
      pz      :     1.387736  p :     4.615876
      px      :     1.563757
      py      :     1.664383
      dz2     :     0.023494  d :     0.072103
      dxz     :     0.010480
      dyz     :     0.007515
      dx2y2   :     0.012935
      dxy     :     0.017680
  5 C s       :     2.871981  s :     2.871981
      pz      :     1.054733  p :     3.011151
      px      :     0.957503
      py      :     0.998915
      dz2     :     0.036875  d :     0.153671
      dxz     :     0.023890
      dyz     :     0.017781
      dx2y2   :     0.033609
      dxy     :     0.041516
  6 H s       :     0.852343  s :     0.852343
      pz      :     0.009487  p :     0.046055
      px      :     0.010260
      py      :     0.026308
  7 H s       :     0.859613  s :     0.859613
      pz      :     0.013738  p :     0.046478
      px      :     0.022811
      py      :     0.009929
  8 C s       :     2.862890  s :     2.862890
      pz      :     0.912271  p :     2.694231
      px      :     0.832484
      py      :     0.949477
      dz2     :     0.061660  d :     0.307130
      dxz     :     0.073385
      dyz     :     0.074512
      dx2y2   :     0.057604
      dxy     :     0.039968
  9 O s       :     3.562562  s :     3.562562
      pz      :     1.610428  p :     4.581018
      px      :     1.529386
      py      :     1.441204
      dz2     :     0.015576  d :     0.078736
      dxz     :     0.019759
      dyz     :     0.017504
      dx2y2   :     0.012374
      dxy     :     0.013522
 10 N s       :     3.187511  s :     3.187511
      pz      :     1.311804  p :     3.988707
      px      :     1.167832
      py      :     1.509071
      dz2     :     0.026118  d :     0.082473
      dxz     :     0.011598
      dyz     :     0.007122
      dx2y2   :     0.012013
      dxy     :     0.025622
 11 O s       :     3.479914  s :     3.479914
      pz      :     1.647738  p :     4.622408
      px      :     1.565900
      py      :     1.408770
      dz2     :     0.010787  d :     0.072238
      dxz     :     0.016748
      dyz     :     0.016736
      dx2y2   :     0.015180
      dxy     :     0.012787
 12 H s       :     0.784330  s :     0.784330
      pz      :     0.016296  p :     0.084112
      px      :     0.032150
      py      :     0.035666
 13 H s       :     0.689725  s :     0.689725
      pz      :     0.071996  p :     0.119765
      px      :     0.022769
      py      :     0.024999
 14 H s       :     0.867730  s :     0.867730
      pz      :     0.029406  p :     0.044626
      px      :     0.007175
      py      :     0.008045
 15 H s       :     0.778205  s :     0.778205
      pz      :     0.049362  p :     0.086732
      px      :     0.013766
      py      :     0.023604


                      *****************************
                      * MAYER POPULATION ANALYSIS *
                      *****************************

  NA   - Mulliken gross atomic population
  ZA   - Total nuclear charge
  QA   - Mulliken gross atomic charge
  VA   - Mayer's total valence
  BVA  - Mayer's bonded valence
  FA   - Mayer's free valence

  ATOM       NA         ZA         QA         VA         BVA        FA
  0 C      5.4389     6.0000     0.5611     3.9751     3.6958     0.2793
  1 C      6.2783     6.0000    -0.2783     3.8646     3.5999     0.2647
  2 O      8.4349     8.0000    -0.4349     2.3205     1.9299     0.3906
  3 H      0.6545     1.0000     0.3455     0.8991     0.8558     0.0433
  4 O      8.5174     8.0000    -0.5174     2.2200     1.8667     0.3533
  5 C      6.0628     6.0000    -0.0628     3.9267     3.6509     0.2758
  6 H      0.8228     1.0000     0.1772     0.9537     0.9081     0.0456
  7 H      0.8351     1.0000     0.1649     0.9552     0.9093     0.0459
  8 C      5.4338     6.0000     0.5662     3.9405     3.6590     0.2815
  9 O      8.4323     8.0000    -0.4323     2.3060     1.9154     0.3906
 10 N      7.6113     7.0000    -0.6113     3.0272     2.7062     0.3211
 11 O      8.5231     8.0000    -0.5231     2.2000     1.8479     0.3521
 12 H      0.7379     1.0000     0.2621     0.9207     0.8753     0.0455
 13 H      0.6549     1.0000     0.3451     0.8997     0.8562     0.0435
 14 H      0.8412     1.0000     0.1588     0.9480     0.9007     0.0473
 15 H      0.7207     1.0000     0.2793     0.9260     0.8812     0.0448

  Mayer bond orders larger than 0.100000
B(  0-C ,  1-C ) :   0.8971 B(  0-C ,  4-O ) :   0.9977 B(  0-C ,  9-O ) :   1.7853 
B(  1-C ,  5-C ) :   0.9129 B(  1-C ,  6-H ) :   0.9100 B(  1-C ,  7-H ) :   0.9062 
B(  2-O ,  8-C ) :   1.8108 B(  3-H , 11-O ) :   0.8118 B(  4-O , 13-H ) :   0.8117 
B(  5-C ,  8-C ) :   0.8530 B(  5-C , 10-N ) :   0.9852 B(  5-C , 14-H ) :   0.9062 
B(  8-C , 11-O ) :   0.9863 B( 10-N , 12-H ) :   0.8713 B( 10-N , 15-H ) :   0.8461 



----------------------------------
MP2 DERIVATIVE INTEGRAL GENERATION
----------------------------------

Input SCF Electron Density              ... 3.scfp
Input Correlated Electron Density       ... 3.pmp2re
Input Energy Weighted Density           ... 3.wmp2.tmp
Input Wavefunction Amplitudes           ... 3.mp2tsaa.tmp

Nuclear repulsion gradient              ... done (  0.0 sec)
HCore & Overlap gradient  (SHARK)       ... done (  0.1 sec)
Analytic two-electron gradient terms    ... 
  Batch handling in the gradient evaluation:
  General contraction                   ... not used
  Memory available                      ... 4084.9 MB
  Memory per occupied orbital in Q2     ...    5.1 MB
  Memory per occupied orbital in Q3     ...    0.0 MB
  Total memory requirement per |i>      ...    5.2 MB
  Number of orbitals treated per batch  ...     26
  Number of batches to be done          ...      1
done ( 12.6 sec)

---------------------------------------
MP2 TOTAL ENERGY:     -510.905876552 Eh
---------------------------------------

The final MP2 gradient
  0:   0.00000081   0.00003729   0.00004498
  1:  -0.00001244  -0.00000028   0.00001278
  2:   0.00001949  -0.00002798  -0.00000464
  3:  -0.00001618  -0.00000360  -0.00002075
  4:   0.00002826  -0.00003978   0.00000302
  5:   0.00002310  -0.00000248   0.00002213
  6:   0.00001636   0.00000425  -0.00000446
  7:  -0.00000088  -0.00000464  -0.00000528
  8:  -0.00004713   0.00004792  -0.00002633
  9:  -0.00000964  -0.00002022  -0.00003317
 10:   0.00000659   0.00002444  -0.00000761
 11:   0.00004993  -0.00001251   0.00003536
 12:  -0.00000252  -0.00000680   0.00001283
 13:  -0.00002063   0.00002266  -0.00001041
 14:  -0.00002693  -0.00000885  -0.00000772
 15:  -0.00000819  -0.00000942  -0.00001075

-----------------------------------
NORM OF THE MP2 GRADIENT:  0.000152
-----------------------------------

Maximum memory used throughout the entire MP2-calculation: 455.6 MB

-------------------------   --------------------
FINAL SINGLE POINT ENERGY      -510.905876551777
-------------------------   --------------------

                                *** OPTIMIZATION RUN DONE ***


------------------------------------------------------------------------------
                              ORCA PROPERTY CALCULATIONS
------------------------------------------------------------------------------

GBWName                                 ... 3.gbw
Number of atoms                         ...     16
Number of basis functions               ...    161
Max core memory                         ...   4096 MB

Electric properties:
Dipole moment                           ... YES
Quadrupole moment                       ...  NO
Static polarizability (Dipole/Dipole)   ...  NO
Static polarizability (Dipole/Quad.)    ...  NO
Static polarizability (Quad./Quad.)     ...  NO
Static polarizability (Velocity)        ...  NO
Static hyperpolarizability              ...  NO

Atomic electric properties:
Dipole moment                           ...  NO
Quadrupole moment                       ...  NO
Static polarizability                   ...  NO

Choice of electric origin               ... Center of mass
Position of electric origin             ...    -6.524519     4.257269     1.064822

General magnetic properties:
Magnetizability                         ...  NO

EPR properties:
g-Tensor (aka g-matrix)                 ...  NO
Zero-Field splitting spin-orbit         ...  NO
Zero-field splitting spin-spin          ...  NO
Hyperfine couplings                     ...  NO (   0 nuclei)
Quadrupole couplings                    ...  NO (   0 nuclei)
Contact density                         ...  NO (   0 nuclei)

NMR properties:
Chemical shifts                         ...  NO (   0 nuclei)
Spin-rotation constants                 ...  NO (   0 nuclei)
Spin-spin couplings                     ...  NO (   0 nuclei,    0 pairs)

Choice of magnetic origin               ... GIAO
Position of magnetic origin             ...     0.000000     0.000000     0.000000

Properties with geometric perturbations:
SCF Hessian                             ...  NO
IR spectrum                             ...  NO
VCD spectrum                            ...  NO
X-ray spectroscopy properties:
SCF XES/XAS/RIXS spectra                ...  NO

SCF SOC stabilization energy            ...  NO
Diagonal Born-Oppenheimer correction    ...  NO

-------------
DIPOLE MOMENT
-------------

Method             : SCF
Type of density    : Electron Density
Multiplicity       :   1
Irrep              :   0
Energy             :  -509.4944822971165763 Eh
Basis              : AO
                                X                 Y                 Z
Electronic contribution:     -1.867403193       1.883049871       2.534557545
Nuclear contribution   :      1.054112526      -1.348355467      -3.160221593
                        -----------------------------------------
Total Dipole Moment    :     -0.813290666       0.534694404      -0.625664048
                        -----------------------------------------
Magnitude (a.u.)       :      1.157063229
Magnitude (Debye)      :      2.941021000



--------------------
Rotational spectrum 
--------------------
 
Rotational constants in cm-1:             0.071680             0.047902             0.039122 
Rotational constants in MHz :          2148.913326          1436.054747          1172.848942 

Dipole components along the rotational axes: 
x,y,z [a.u.] :    -0.500386    -0.831802     0.629693 
x,y,z [Debye]:    -1.271881    -2.114274     1.600553 

 

-------------
DIPOLE MOMENT
-------------

Method             : MP2
Type of density    : Electron Density
Multiplicity       :   1
Level              : Unrelaxed density
Irrep              :   0
Energy             :     0.0000000000000000 Eh
Basis              : AO
                                X                 Y                 Z
Electronic contribution:     -1.843239829       1.888614635       2.593515887
Nuclear contribution   :      1.054112526      -1.348355467      -3.160221593
                        -----------------------------------------
Total Dipole Moment    :     -0.789127302       0.540259168      -0.566705706
                        -----------------------------------------
Magnitude (a.u.)       :      1.111646178
Magnitude (Debye)      :      2.825580031



--------------------
Rotational spectrum 
--------------------
 
Rotational constants in cm-1:             0.071680             0.047902             0.039122 
Rotational constants in MHz :          2148.913326          1436.054747          1172.848942 

Dipole components along the rotational axes: 
x,y,z [a.u.] :    -0.482615    -0.824258     0.568716 
x,y,z [Debye]:    -1.226710    -2.095098     1.445562 

 

-------------
DIPOLE MOMENT
-------------

Method             : MP2
Type of density    : Electron Density
Multiplicity       :   1
Level              : Relaxed density
Irrep              :   0
Energy             :     0.0000000000000000 Eh
Basis              : AO
                                X                 Y                 Z
Electronic contribution:     -1.780976707       1.929599997       2.815501808
Nuclear contribution   :      1.054112526      -1.348355467      -3.160221593
                        -----------------------------------------
Total Dipole Moment    :     -0.726864180       0.581244530      -0.344719786
                        -----------------------------------------
Magnitude (a.u.)       :      0.992475930
Magnitude (Debye)      :      2.522673333



--------------------
Rotational spectrum 
--------------------
 
Rotational constants in cm-1:             0.071680             0.047902             0.039122 
Rotational constants in MHz :          2148.913326          1436.054747          1172.848942 

Dipole components along the rotational axes: 
x,y,z [a.u.] :    -0.423210    -0.829907     0.342280 
x,y,z [Debye]:    -1.075715    -2.109456     0.870006 

 

Dipole moment calculation done in   0.0 sec 

Maximum memory used throughout the entire PROP-calculation: 8.4 MB

--------------------------------
SUGGESTED CITATIONS FOR THIS RUN
--------------------------------

Below you find a list of papers that are relevant to this ORCA run
We neither can nor want to force you to cite these papers, but we appreciate if you do
You receive ORCA, which is the product of decades of hard work by many enthusiastic individuals, for free
The only thing we kindly ask in return is that you cite our papers,
We deeply appreciate it, if you show your appreciation for ORCA by not just citing the generic ORCA reference.

Please note that relegating all ORCA citations to the supporting information does *not* help us.
SI sections are not indexed - citations you put there will not count into any citation statistics
But we need these citations in order to attract the funding resources that allow us to do what we are doing

Therefore, if you are a happy ORCA user, please consider citing a few of the papers listed below in the main body of your paper

In addition to the list printed below, the program has created the file 3.bibtex that contains the list in bibtex format
You can import this file easily into all common literature databanks and citation aid programs


List of essential papers. We consider these as the minimum necessary citations

  1. Neese, F.
     Software update: the ORCA program system, version 6.0
     WIRES Comput. Molec. Sci. 2025 15(1), e70019
     doi.org/10.1002/wcms.7019

List of papers to cite with high priority. The work reported in these papers was absolutely
necessary for this run to complete.
Our perspective: the developers of density functionals and basis sets usually get cited in chemistry papers
Good! But without the algorithms to do something with them, the functionals or basis sets would not do anything.
Hence, in our opinion, the algorithm design and method developments papers are equally worthy of getting cited

  1. Neese, F.
     The SHARK Integral Generation and Digestion System
     J. Comp. Chem. 2022 44(3), 381
     doi.org/10.1002/jcc.26942

List of suggested additional citations. These are papers that are important in the 'surrounding' of 
of this run, or papers that preceded the highly important papers. If you like your results we are grateful for a citation.

  1. Neese, F.
     The ORCA program system
     WIRES Comput. Molec. Sci. 2012 2(1), 73-78
     doi.org/10.1002/wcms.81
  2. Neese, F.
     Software update: the ORCA program system, version 4.0
     WIRES Comput. Molec. Sci. 2018 8(1), 1-6
     doi.org/10.1002/wcms.1327
  3. Neese, F.; Wennmohs, F.; Becker, U.; Riplinger, C.
     The ORCA quantum chemistry program package
     J. Chem. Phys. 2020 152(22), 224108
     doi.org/10.1063/5.0004608
  4. Neese, F.
     Software update: The ORCA program system—Version 5.0
     WIRES Comput. Molec. Sci. 2022 12(1), e1606
     doi.org/10.1002/wcms.1606

List of optional additional citations

  1. Neese, F.
     Approximate second-order SCF convergence for spin unrestricted wavefunctions
     Chem. Phys. Lett. 2000 325(1-3), 93-98
     doi.org/10.1016/s0009-2614(00)00662-x

Timings for individual modules:

Sum of individual times          ...      588.576 sec (=   9.810 min)
Startup calculation              ...        4.316 sec (=   0.072 min)   0.7 %
SCF iterations                   ...      124.521 sec (=   2.075 min)  21.2 %
Property calculations            ...        0.036 sec (=   0.001 min)   0.0 %
MP2 module                       ...      459.689 sec (=   7.661 min)  78.1 %
Geometry relaxation              ...        0.013 sec (=   0.000 min)   0.0 %
                             ****ORCA TERMINATED NORMALLY****
TOTAL RUN TIME: 0 days 0 hours 9 minutes 48 seconds 802 msec
