
                                 *****************
                                 * O   R   C   A *
                                 *****************

                                            #,                                       
                                            ###                                      
                                            ####                                     
                                            #####                                    
                                            ######                                   
                                           ########,                                 
                                     ,,################,,,,,                         
                               ,,#################################,,                 
                          ,,##########################################,,             
                       ,#########################################, ''#####,          
                    ,#############################################,,   '####,        
                  ,##################################################,,,,####,       
                ,###########''''           ''''###############################       
              ,#####''   ,,,,##########,,,,          '''####'''          '####       
            ,##' ,,,,###########################,,,                        '##       
           ' ,,###''''                  '''############,,,                           
         ,,##''                                '''############,,,,        ,,,,,,###''
      ,#''                                            '''#######################'''  
     '                                                          ''''####''''         
             ,#######,   #######,   ,#######,      ##                                
            ,#'     '#,  ##    ##  ,#'     '#,    #''#        ,####,    ,#,          
            ##       ##  ##   ,#'  ##            #'  '#       #'       ,# #          
            ##       ##  #######   ##           ,######,      #####,      #          
            '#,     ,#'  ##    ##  '#,     ,#' ,#      #,     #,   #      #          
             '#######'   ##     ##  '#######'  #'      '#     '####' #    #          



                #########################################################
                #                        -***-                          #
                #          Department of theory and spectroscopy        #
                #                                                       #
                #                      Frank Neese                      #
                #                                                       #
                #     Directorship, Architecture, Infrastructure        #
                #                    SHARK, DRIVERS                     #
                #        Core code/Algorithms in most modules           #
                #                                                       #
                #        Max Planck Institute fuer Kohlenforschung      #
                #                Kaiser Wilhelm Platz 1                 #
                #                 D-45470 Muelheim/Ruhr                 #
                #                      Germany                          #
                #                                                       #
                #                  All rights reserved                  #
                #                        -***-                          #
                #########################################################


                         Program Version 6.1.0  -  RELEASE   -
                                (GIT: $679e74b$)
                          ($2025-06-10 18:02:51 +0200$)


 With contributions from (in alphabetic order):
[Max-Planck-Institut fuer Kohlenforschung]                               
  Daniel Aravena         : Magnetic Suceptibility                        
  Michael Atanasov       : Ab Initio Ligand Field Theory (pilot matlab implementation)
  Alexander A. Auer      : GIAO ZORA, VPT2 properties, NMR spectrum      
  Ute Becker             : All parallelization in ORCA, NUMFREQ, NUMCALC 
  Giovanni Bistoni       : ED, misc. LED, open-shell LED, HFLD           
  Dmytro Bykov           : pre 5.0 version of the SCF Hessian            
  Marcos Casanova-Páez   : Triplet and SCS-CIS(D). UHF-(DLPNO)-IP/EA/STEOM-CCSD. UHF-CVS-IP/STEOM-CCSD   
  Vijay G. Chilkuri      : MRCI spin determinant printing, contributions to CSF-ICE 
  Pauline Colinet        : FMM embedding                                 
  Dipayan Datta          : RHF DLPNO-CCSD density                        
  Achintya Kumar Dutta   : EOM-CC, STEOM-CC                              
  Nicolas Foglia         : Exact transition moments, OPA infrastructure, MCD improvements    
  Dmitry Ganyushin       : Spin-Orbit,Spin-Spin,Magnetic field MRCI      
  Miquel Garcia-Rates    : C-PCM and meta-GGA Hessian, CCSD/C-PCM, Gaussian charge scheme 
  Tiago L. C. Gouveia    : GS-ROHF, GS-ROCIS                             
  Yang Guo               : DLPNO-NEVPT2, F12-NEVPT2, CIM, IAO-localization        
  Andreas Hansen         : Spin unrestricted coupled pair/coupled cluster methods 
  Ingolf Harden          : AUTO-CI MPn and infrastructure                
  Benjamin Helmich-Paris : MC-RPA, TRAH-(SCF,CASSCF), AVAS, COSX integrals, SCF dyn. polar., MC-PDFT, srDFT 
  Lee Huntington         : MR-EOM, pCC                                   
  Robert Izsak           : Overlap fitted RIJCOSX, COSX-SCS-MP3, EOM     
  Riya Kayal             : Wick's Theorem for AUTO-CI, AUTO-CI UHF-CCSDT 
  Emily Kempfer          : AUTO-CI RHF CISDT and CCSDT, approximate NEVPT4
  Christian Kollmar      : KDIIS, OOCD, Brueckner-CCSD(T), CCSD density, CASPT2, CASPT2-K, improved NEVPT2 
  Axel Koslowski         : Symmetry handling                             
  Simone Kossmann        : meta-GGA functionals, TD-DFT gradient, OOMP2, (MP2 Hessian; deprecated post 5.0) 
  Lucas Lang             : DCDCAS, Hyperfine gauge corrections, ICE-SOC+SSC
  Marvin Lechner         : AUTO-CI (C++ implementation), FIC-MRCC        
  Spencer Leger          : CASSCF response                               
  Dagmar Lenk            : GEPOL surface, SMD, ORCA-2-JSON               
  Dimitrios Liakos       : Extrapolation schemes; Compound Job, Property file
  Dimitrios Manganas     : Further ROCIS development; embedding schemes. LFT, Crystal Embedding 
  Dimitrios Pantazis     : SARC Basis sets                               
  Anastasios Papadopoulos: AUTO-CI, single reference methods and gradients 
  Taras Petrenko         : pre 6.0 DFT Hessian and TD-DFT gradient,  ECA, NRVS 
  Petra Pikulova         : Analytic Raman intensities                    
  Peter Pinski           : DLPNO-MP2, DLPNO-MP2 Gradient                 
  Shashank Vittal Rao    : ES-AILFT, MagRelax                            
  Christoph Reimann      : Effective Core Potentials                     
  Marius Retegan         : Local ZFS, SOC                                
  Christoph Riplinger    : Optimizer, TS searches, QM/MM, DLPNO-CCSD(T), (RO)-DLPNO pert. Triples 
  Michael Roemelt        : Original ROCIS implementation, recursive CI coupling coefficients
  Masaaki Saitow         : Open-shell DLPNO-CCSD energy and density      
  Barbara Sandhoefer     : DKH picture change effects                    
  Yorick L. A. Schmerwitz: GMF and freeze-and-release deltaSCF, NEB S-IDPP initial path                    
  Kantharuban Sivalingam : CASSCF convergence/infrastructure, NEVPT2, NEVPT3, NEVPT4(SD), FIC-MRCI and CEPA variants
  Bernardo de Souza      : ESD, SOC TD-DFT                               
  Georgi L. Stoychev     : AutoAux, RI-MP2 NMR, DLPNO-MP2 response, X2C  
  Van Anh Tran           : RI-MP2 g-tensors                              
  Willem Van den Heuvel  : Paramagnetic NMR                              
  Zikuan Wang            : NOTCH, Electric field optimization            
  Frank Wennmohs         : Technical directorship and infrastructure     
  Hang Xu                : AUTO-CI-Response properties                   
                                                                         
[FACCTs GmbH]                                                            
  Markus Bursch, Nicolas Foglia, Miquel Garcia-Rates, Ingolf Harden, Hagen Neugebauer, Anastasios Papadopoulos, 
  Christoph Riplinger, Bernardo de Souza, Georgi L. Stoychev                                                    
                                                                 
  APM, various basis sets, CI-OPT, improved COSX, DLPNO-Multilevel,           
  DOCKER, DRACO, updates on ESD, Fragmentator, GOAT, IRC, LR-CPCM, L-BFGS, MBIS, meta-GGA TD-DFT gradient, ML-optimized integration grids, 
  MM, NACMEs, nearIR, NEB, NEB-TS, NL-DFT gradient (VV10), 2- and 3-layer-ONIOM, interface openCOSMO-RS, QMMM,   
  Crystal-QMMM, RESP, rigid body optimization, SF, symmetry and pop. for TD-DFT, various functionals, SOLVATOR                                   
                                                                         
[Other institutions]                                                     
  V. Asgeirsson          : NEB                                           
  Christoph Bannwarth    : sTDA-DFT, sTD-DFT, PBEh-3c, B97-3c, D3        
  Giovanni Bistoni       : ETS/NOCV, ADLD/ADEX, COVALED                  
  Martin Brehm           : Molecular dynamics                            
  Ronald Cardenas        : ETS/NOCV                                      
  Martina Colucci        : COVALED                                       
  Sebastian Ehlert       : rSCAN, r2SCAN, r2SCAN-3c, D4, dhf basis sets  
  Marvin Friede          : D4 for Fr, Ra, Ac-Lr                          
  Lars Goerigk           : TD-DFT with DH, B97 family of functionals     
  Stefan Grimme          : VdW corrections, initial TS optimization, DFT functionals, gCP, sTDA/sTD-DF 
  Waldemar Hujo          : DFT-NL                                        
  H. Jonsson             : NEB                                           
  Holger Kruse           : gCP                                           
  Marcel Mueller         : wB97X-3c, vDZP basis set                      
  Hagen Neugebauer       : wr2SCAN, Native XTB                           
  Gianluca Regni         : ADLD/ADEX                                     
  Tobias Risthaus        : pre 6.0 range-separated hybrid DFT and stability analysis
  Lukas Wittmann         : regularized MP2, r2SCAN double-hybrids, wr2SCAN        
                                                                         
We gratefully acknowledge several colleagues who have allowed us to      
interface, adapt or use parts of their codes:                            
  Ed Valeev, F. Pavosevic, A. Kumar             : LibInt (2-el integral package), F12 methods 
  Garnet Chan, S. Sharma, J. Yang, R. Olivares  : DMRG                   
  Ulf Ekstrom                                   : XCFun DFT Library      
  Mihaly Kallay                                 : mrcc  (arbitrary order and MRCC methods)
  Frank Weinhold                                : gennbo (NPA and NBO analysis)           
  Simon Mueller                                 : openCOSMO-RS                            
  Christopher J. Cramer and Donald G. Truhlar   : smd solvation model                     
  S Lehtola, MJT Oliveira, MAL Marques          : LibXC Library                           
  Liviu Ungur et al                             : ANISO software                          


 Your calculation uses the libint2 library for the computation of 2-el integrals
 For citations please refer to: http://libint.valeyev.net

 Your ORCA version has been built with support for libXC version: 7.0.0
 For citations please refer to: https://libxc.gitlab.io

 This ORCA versions uses:
   CBLAS   interface :  Fast vector & matrix operations
   LAPACKE interface :  Fast linear algebra routines
   SCALAPACK package :  Parallel linear algebra routines
   Shared memory     :  Shared parallel matrices
   BLAS/LAPACK       :  OpenBLAS 0.3.29  USE64BITINT DYNAMIC_ARCH NO_AFFINITY Haswell SINGLE_THREADED
        Core in use  :  Haswell
   Copyright (c) 2011-2014, The OpenBLAS Project


  ***********************************
  * Starting time: Thu Aug 14 12:10:21 2025
  * Host name:     CHEMLAB02
  * Process ID:    1769334
  * Working dir.:  /home/vivek/mm-project/vivek/B97-D/d/4
  ***********************************



***************************************
The coordinates will be read from file: /home/vivek/mm-project/vivek/xtb-goat/d/D_CONF/4.xyz
***************************************


Your calculation utilizes empirical dispersion correction


Warning: RI is on but no J-basis has been assigned. Assigning Def2/J (nothing to worry about!)
================================================================================

----- Orbital basis set information -----
Your calculation utilizes the basis: 6-31G**
   H-He, Li-Ne : W. J. Hehre, R. Ditchfield and J.A. Pople, J. Chem. Phys. 56, 2257 (1972).
                 Note: He and Ne are unpublished basis sets taken from the Gaussian program.
                 Note: Li and B from J. D. Dill and J. A. Pople, J. Chem. Phys. 62, 2921 (1975).
   Na - Ar     : M. M. Francl, W. J. Pietro, W. J. Hehre, J. S. Binkley, M. S. Gordon, 
                 D. J. DeFrees and J. A. Pople, J. Chem. Phys. 77, 3654 (1982).
   K - Zn      : V. A. Rassolov, J. A. Pople, M. A. Ratner, and T. L. Windus, J. Chem. Phys. 109, 1223 (1998).

----- AuxJ basis set information -----
Your calculation utilizes the auxiliary basis: def2/J
   H-Rn: F. Weigend, Phys. Chem. Chem. Phys. 8, 1057 (2006).
   Fr-Lr: K. Eichkorn, F. Weigend, O. Treutler, R. Ahlrichs; Theor. Chem. Acc. 97, 119 (1997).

================================================================================
                                        WARNINGS
                       Please study these warnings very carefully!
================================================================================


INFO   : The exchange functional is Grimme's B97(-D)
         As described in S. Grimme, J. Comput. Chem. 27, 1787 (2006).
         Note that this functional defaults to a pure GGA. 

INFO   : The correlation functional is Grimme's B97(-D)
         As described in S. Grimme, J. Comput. Chem. 27, 1787 (2006).

================================================================================
                                       INPUT FILE
================================================================================
NAME = 4.inp
|  1> ! B97-D 6-31G** 
|  2> 
|  3> * xyzfile 0 1 /home/vivek/mm-project/vivek/xtb-goat/d/D_CONF/4.xyz
|  4> 
|  5>                          ****END OF INPUT****
================================================================================

                       ****************************
                       * Single Point Calculation *
                       ****************************

---------------------------------
CARTESIAN COORDINATES (ANGSTROEM)
---------------------------------
  C     -4.174469    1.174778    1.285479
  C     -3.872997    1.174080   -0.193953
  O     -2.393195    4.133374    0.858207
  H     -4.385099    4.896165   -0.101319
  O     -5.411787    1.608987    1.543584
  C     -2.712892    2.145206   -0.489931
  H     -3.551689    0.175153   -0.490073
  H     -4.765296    1.469301   -0.742448
  C     -3.060314    3.530728    0.061856
  O     -3.409856    0.850511    2.153981
  N     -1.468273    1.620557    0.020387
  O     -4.189240    4.016574   -0.462470
  H     -1.594764    1.308932    0.980027
  H     -5.582374    1.613857    2.499514
  H     -2.623326    2.254404   -1.580226
  H     -0.764239    2.351716    0.034843

----------------------------
CARTESIAN COORDINATES (A.U.)
----------------------------
  NO LB      ZA    FRAG     MASS         X           Y           Z
   0 C     6.0000    0    12.011   -7.888604    2.220009    2.429203
   1 C     6.0000    0    12.011   -7.318904    2.218690   -0.366517
   2 O     8.0000    0    15.999   -4.522483    7.810945    1.621776
   3 H     1.0000    0     1.008   -8.286636    9.252411   -0.191466
   4 O     8.0000    0    15.999  -10.226795    3.040544    2.916952
   5 C     6.0000    0    12.011   -5.126622    4.053852   -0.925835
   6 H     1.0000    0     1.008   -6.711719    0.330991   -0.926103
   7 H     1.0000    0     1.008   -9.005104    2.776576   -1.403024
   8 C     6.0000    0    12.011   -5.783155    6.672109    0.116891
   9 O     8.0000    0    15.999   -6.443693    1.607233    4.070433
  10 N     7.0000    0    14.007   -2.774634    3.062410    0.038527
  11 O     8.0000    0    15.999   -7.916517    7.590225   -0.873941
  12 H     1.0000    0     1.008   -3.013666    2.473523    1.851983
  13 H     1.0000    0     1.008  -10.549157    3.049748    4.723397
  14 H     1.0000    0     1.008   -4.957368    4.260205   -2.986194
  15 H     1.0000    0     1.008   -1.444203    4.444098    0.065844

--------------------------------
INTERNAL COORDINATES (ANGSTROEM)
--------------------------------
 C      0   0   0     0.000000000000     0.00000000     0.00000000
 C      1   0   0     1.509835245361     0.00000000     0.00000000
 O      2   1   0     3.471926871671    77.74663802     0.00000000
 H      3   2   1     2.338850581350    77.91655748   258.69251648
 O      1   2   3     1.336454301787   111.97790322    98.79639003
 C      2   1   3     1.541600959584   109.76093175    18.67501700
 H      2   1   3     1.090312452795   108.98912321   136.34500538
 H      2   1   3     1.088209445301   109.27086541   257.41749590
 C      3   2   1     1.201001321736    30.07257713   223.47079288
 O      1   2   3     1.201698333953   125.52114041   279.91183786
 N      6   2   1     1.443868636128   110.60529879    70.57119705
 O      4   3   2     0.970809192972    71.65750673   338.72151732
 H     11   6   2     1.016867381425   109.73531515   311.75120423
 H      5   1   2     0.971043426640   110.75628303   180.78549382
 H      6   2   1     1.099404481001   108.31729019   189.28978048
 H     11   6   2     1.015117850654   109.94723354   194.23574766

---------------------------
INTERNAL COORDINATES (A.U.)
---------------------------
 C      0   0   0     0.000000000000     0.00000000     0.00000000
 C      1   0   0     2.853175121073     0.00000000     0.00000000
 O      2   1   0     6.560990944460    77.74663802     0.00000000
 H      3   2   1     4.419787066913    77.91655748   258.69251648
 O      1   2   3     2.525532620878   111.97790322    98.79639003
 C      2   1   3     2.913203621404   109.76093175    18.67501700
 H      2   1   3     2.060391936187   108.98912321   136.34500538
 H      2   1   3     2.056417827966   109.27086541   257.41749590
 C      3   2   1     2.269563584558    30.07257713   223.47079288
 O      1   2   3     2.270880746761   125.52114041   279.91183786
 N      6   2   1     2.728516295640   110.60529879    70.57119705
 O      4   3   2     1.834563503010    71.65750673   338.72151732
 H     11   6   2     1.921600865411   109.73531515   311.75120423
 H      5   1   2     1.835006140494   110.75628303   180.78549382
 H      6   2   1     2.077573379497   108.31729019   189.28978048
 H     11   6   2     1.918294731391   109.94723354   194.23574766

---------------------
BASIS SET INFORMATION
---------------------
There are 4 groups of distinct atoms

 Group   1 Type C   : 10s4p1d contracted to 3s2p1d pattern {631/31/1}
 Group   2 Type O   : 10s4p1d contracted to 3s2p1d pattern {631/31/1}
 Group   3 Type H   : 4s1p contracted to 2s1p pattern {31/1}
 Group   4 Type N   : 10s4p1d contracted to 3s2p1d pattern {631/31/1}

Atom   0C    basis set group =>   1
Atom   1C    basis set group =>   1
Atom   2O    basis set group =>   2
Atom   3H    basis set group =>   3
Atom   4O    basis set group =>   2
Atom   5C    basis set group =>   1
Atom   6H    basis set group =>   3
Atom   7H    basis set group =>   3
Atom   8C    basis set group =>   1
Atom   9O    basis set group =>   2
Atom  10N    basis set group =>   4
Atom  11O    basis set group =>   2
Atom  12H    basis set group =>   3
Atom  13H    basis set group =>   3
Atom  14H    basis set group =>   3
Atom  15H    basis set group =>   3
---------------------------------
AUXILIARY/J BASIS SET INFORMATION
---------------------------------
There are 4 groups of distinct atoms

 Group   1 Type C   : 12s5p4d2f1g contracted to 6s4p3d1f1g pattern {711111/2111/211/2/1}
 Group   2 Type O   : 12s5p4d2f1g contracted to 6s4p3d1f1g pattern {711111/2111/211/2/1}
 Group   3 Type H   : 5s2p1d contracted to 3s1p1d pattern {311/2/1}
 Group   4 Type N   : 12s5p4d2f1g contracted to 6s4p3d1f1g pattern {711111/2111/211/2/1}

Atom   0C    basis set group =>   1
Atom   1C    basis set group =>   1
Atom   2O    basis set group =>   2
Atom   3H    basis set group =>   3
Atom   4O    basis set group =>   2
Atom   5C    basis set group =>   1
Atom   6H    basis set group =>   3
Atom   7H    basis set group =>   3
Atom   8C    basis set group =>   1
Atom   9O    basis set group =>   2
Atom  10N    basis set group =>   4
Atom  11O    basis set group =>   2
Atom  12H    basis set group =>   3
Atom  13H    basis set group =>   3
Atom  14H    basis set group =>   3
Atom  15H    basis set group =>   3
------------------------------------------------------------------------------
                             ORCA STARTUP CALCULATIONS
                           -- RI-GTO INTEGRALS CHOSEN --
------------------------------------------------------------------------------
------------------------------------------------------------------------------
                   ___                                                        
                  /   \      - P O W E R E D   B Y -                         
                 /     \                                                     
                 |  |  |   _    _      __       _____    __    __             
                 |  |  |  | |  | |    /  \     |  _  \  |  |  /  |          
                  \  \/   | |  | |   /    \    | | | |  |  | /  /          
                 / \  \   | |__| |  /  /\  \   | |_| |  |  |/  /          
                |  |  |   |  __  | /  /__\  \  |    /   |      \           
                |  |  |   | |  | | |   __   |  |    \   |  |\   \          
                \     /   | |  | | |  |  |  |  | |\  \  |  | \   \       
                 \___/    |_|  |_| |__|  |__|  |_| \__\ |__|  \__/        
                                                                              
                      - O R C A' S   B I G   F R I E N D -                    
                                      &                                       
                       - I N T E G R A L  F E E D E R -                       
                                                                              
 v1 FN, 2020, v2 2021, v3 2022-2024                                           
------------------------------------------------------------------------------


----------------------
SHARK INTEGRAL PACKAGE
----------------------

Number of atoms                             ...     16
Number of basis functions                   ...    161
Number of shells                            ...     75
Maximum angular momentum                    ...      2
Integral batch strategy                     ... SHARK/LIBINT Hybrid
RI-J (if used) integral strategy            ... SPLIT-RIJ (Revised 2003 algorithm where possible)
Printlevel                                  ...      1
Contraction scheme used                     ... SEGMENTED contraction
Prescreening option                         ... SCHWARTZ
   Thresh                                   ... 1.000e-10
   Tcut                                     ... 1.000e-11
   Tpresel                                  ... 1.000e-11 
Coulomb Range Separation                    ... NOT USED
Exchange Range Separation                   ... NOT USED
Multipole approximations                    ... NOT USED
Finite Nucleus Model                        ... NOT USED
CABS basis                                  ... NOT available
Auxiliary Coulomb fitting basis             ... AVAILABLE
   # of basis functions in Aux-J            ...    518
   # of shells in Aux-J                     ...    170
   Maximum angular momentum in Aux-J        ...      4
Auxiliary J/K fitting basis                 ... NOT available
Auxiliary Correlation fitting basis         ... NOT available
Auxiliary 'external' fitting basis          ... NOT available

Checking pre-screening integrals            ... done (  0.0 sec) Dimension = 75
   => SHARK Basis and OBASIS are compatible. Storing Pre-screening
Shell pair information
Shell pair cut-off parameter TPreSel        ...   1.0e-11
Total number of shell pairs                 ...      2850
Shell pairs after pre-screening             ...      2633
Total number of primitive shell pairs       ...     14745
Primitive shell pairs kept                  ...      8929
          la=0 lb=0:    780 shell pairs
          la=1 lb=0:    938 shell pairs
          la=1 lb=1:    303 shell pairs
          la=2 lb=0:    348 shell pairs
          la=2 lb=1:    219 shell pairs
          la=2 lb=2:     45 shell pairs

Checking whether 4 symmetric matrices of dimension 161 fit in memory
:Max Core in MB      =   4096.00
 MB in use           =      7.02
 MB left             =   4088.98
 MB needed           =      0.40
 Data fit in memory  = YES
Calculating RI/J V-Matrix + Cholesky decomp.... done (  0.0 sec)
Calculating Nuclear repulsion               ... done (  0.0 sec) ENN=    484.296202712098 Eh

Diagonalization of the overlap matrix:
Smallest eigenvalue                        ... 2.977e-03
Time for diagonalization                   ...    0.001 sec
Threshold for overlap eigenvalues          ... 1.000e-07
Number of eigenvalues below threshold      ... 0
Time for construction of square roots      ...    0.000 sec
Total time needed                          ...    0.002 sec

-------------------
DFT GRID GENERATION
-------------------

General Integration Accuracy     IntAcc      ... 4.388
Radial Grid Type                 RadialGrid  ... OptM3 with GC (2021)
Angular Grid (max. ang.)         AngularGrid ... 4 (Lebedev-302)
Angular grid pruning method      GridPruning ... 4 (adaptive)
Weight generation scheme         WeightScheme... mBecke (2022)
Basis function cutoff            BFCut       ... 1.0000e-10
Integration weight cutoff        WCut        ... 1.0000e-14
Partially contracted basis set               ... off
Rotationally invariant grid construction     ... off
Angular grids for H and He will be reduced by one unit

Total number of grid points                  ...    76915
Total number of batches                      ...     1211
Average number of points per batch           ...       63
Average number of grid points per atom       ...     4807
Grids setup in   0.3 sec
Initializing property integral containers    ... done (  0.0 sec)

SHARK setup successfully completed in   0.3 seconds

Maximum memory used throughout the entire STARTUP-calculation: 32.3 MB
-------------------------------------------------------------------------------
                                 ORCA GUESS
                   Start orbitals & Density for SCF / CASSCF
-------------------------------------------------------------------------------

------------
SCF SETTINGS
------------
Hamiltonian:
 Density Functional     Method          .... DFT(GTOs)
 Exchange Functional    Exchange        .... B97(D)
 Correlation Functional Correlation     .... B97(D)
 Gradients option       PostSCFGGA      .... off
 RI-approximation to the Coulomb term is turned on
   Number of AuxJ basis functions       .... 518


General Settings:
 Integral files         IntName         .... 4
 Hartree-Fock type      HFTyp           .... RHF
 Total Charge           Charge          ....    0
 Multiplicity           Mult            ....    1
 Number of Electrons    NEL             ....   70
 Basis Dimension        Dim             ....  161
 Nuclear Repulsion      ENuc            ....    484.2962027121 Eh

Convergence Acceleration:
 AO-DIIS                CNVDIIS         .... on
   Start iteration      DIISMaxIt       ....    12
   Startup error        DIISStart       ....  0.200000
   # of expansion vecs  DIISMaxEq       ....     5
   Bias factor          DIISBfac        ....   1.050
   Max. coefficient     DIISMaxC        ....  10.000
 MO-DIIS                CNVKDIIS        .... off
 Trust-Rad. Augm. Hess. CNVTRAH         .... auto
   Auto Start mean grad. ratio tolernc. ....  1.125000
   Auto Start start iteration           ....    50
   Auto Start num. interpolation iter.  ....    10
   Max. Number of Micro iterations      ....    24
   Max. Number of Macro iterations      .... Maxiter - #DIIS iter
   Number of Davidson start vectors     ....     2
   Converg. threshold    (grad. norm)   ....   5.000e-05
   Grad. Scal. Fac. for Micro threshold ....   0.100
   Minimum threshold for Micro iter.    ....   1.000e-02
   NR start threshold (gradient norm)   ....   1.000e-04
   Initial trust radius                 ....   0.400
   Minimum AH scaling param. (alpha)    ....   1.000
   Maximum AH scaling param. (alpha)    .... 1000.000
   Quad. conv. algorithm                .... NR
   White noise on init. David. guess    .... on
   Maximum white noise                  ....   0.010
   Pseudo random numbers                .... off
   Inactive MOs                         .... canonical
   Orbital update algorithm             .... Taylor
   Preconditioner                       .... Diag
   Full preconditioner red. dimension   ....   250
 SOSCF                 CNVSOSCF           .... on
   Start iteration     SOSCFMaxIt         ....   150
   Startup grad/error  SOSCFStart         ....  0.003300
   Hessian update      SOSCFHessUp        .... L-BFGS
   Autom. constraints  SOSCFAutoConstrain .... off
 Level Shifting         CNVShift        .... on
   Level shift para.    LevelShift      ....    0.2500
   Turn off err/grad.   ShiftErr        ....    0.0010
 Zerner damping         CNVZerner       .... off
 Static damping         CNVDamp         .... on
   Fraction old density DampFac         ....    0.7000
   Max. Damping (<1)    DampMax         ....    0.9800
   Min. Damping (>=0)   DampMin         ....    0.0000
   Turn off err/grad.   DampErr         ....    0.1000

SCF Procedure:
 Maximum # iterations   MaxIter         ....   125
 SCF integral mode      SCFMode         .... Direct
   Integral package                     .... SHARK and LIBINT hybrid scheme
 Reset frequency        DirectResetFreq ....    20
 Integral Threshold     Thresh          ....  1.000e-10 Eh
 Primitive CutOff       TCut            ....  1.000e-11 Eh

Convergence Tolerance:
 Convergence Check Mode ConvCheckMode   .... Total+1el-Energy
 Convergence forced     ConvForced      .... 0
 Energy Change          TolE            ....  1.000e-06 Eh
 1-El. energy change                    ....  1.000e-03 Eh
 Orbital Gradient       TolG            ....  5.000e-05
 Orbital Rotation angle TolX            ....  5.000e-05
 DIIS Error             TolErr          ....  1.000e-06

------------------------------
INITIAL GUESS: MODEL POTENTIAL
------------------------------
Loading Hartree-Fock densities                     ... done
Calculating cut-offs                               ... done
Initializing the effective Hamiltonian             ... done
Setting up the integral package (SHARK)            ... done
Starting the Coulomb interaction                   ... done (   0.0 sec)
Making the grid                                    ... done (   0.1 sec)
Mapping shells                                     ... done
Starting the XC term evaluation                    ... done (   0.1 sec)
  promolecular density results
     # of electrons  =     69.998098192
     EX              =    -61.071277831
     EC              =     -3.177630363
     EX+EC           =    -64.248908194
Transforming the Hamiltonian                       ... done (   0.0 sec)
Diagonalizing the Hamiltonian                      ... done (   0.0 sec)
Back transforming the eigenvectors                 ... done (   0.0 sec)
Now organizing SCF variables                       ... done
                      ------------------
                      INITIAL GUESS DONE (   0.2 sec)
                      ------------------
             **** ENERGY FILE WAS UPDATED (4.en.tmp) ****
Finished Guess after   0.2 sec
Maximum memory used throughout the entire GUESS-calculation: 11.7 MB

-------------------------------------------------------------------------------------------
                                      ORCA LEAN-SCF
                              memory conserving SCF solver
-------------------------------------------------------------------------------------------

----------------------------------------D-I-I-S--------------------------------------------
Iteration    Energy (Eh)           Delta-E    RMSDP     MaxDP     DIISErr   Damp  Time(sec)
-------------------------------------------------------------------------------------------
               ***  Starting incremental Fock matrix formation  ***
    1    -511.6077137070141703     0.00e+00  4.58e-03  1.08e-01  2.57e-01  0.700   0.4
    2    -511.7962156726092076    -1.89e-01  2.65e-03  5.65e-02  9.54e-02  0.700   0.4
                               ***Turning on AO-DIIS***
    3    -511.8482306988750565    -5.20e-02  9.43e-04  1.47e-02  3.29e-02  0.700   0.4
    4    -511.8852968087582553    -3.71e-02  1.26e-03  2.01e-02  1.78e-02  0.000   0.4
    5    -511.9729044529145199    -8.76e-02  4.54e-04  7.61e-03  1.28e-02  0.000   0.4
    6    -511.9737865717522141    -8.82e-04  1.63e-04  2.46e-03  3.72e-03  0.000   0.4
                              *** Initializing SOSCF ***
---------------------------------------S-O-S-C-F--------------------------------------
Iteration    Energy (Eh)           Delta-E    RMSDP     MaxDP     MaxGrad    Time(sec)
--------------------------------------------------------------------------------------
    7    -511.9738571216863079    -7.05e-05  6.08e-05  9.83e-04  1.00e-03     0.3
               *** Restarting incremental Fock matrix formation ***
    8    -511.9738676721488559    -1.06e-05  3.97e-05  7.25e-04  1.07e-04     0.4
    9    -511.9738680773038482    -4.05e-07  1.97e-05  2.95e-04  1.90e-04     0.3
                 **** Energy Check signals convergence ****

               *****************************************************
               *                     SUCCESS                       *
               *           SCF CONVERGED AFTER   9 CYCLES          *
               *****************************************************

             **** ENERGY FILE WAS UPDATED (4.en.tmp) ****

----------------
TOTAL SCF ENERGY
----------------

Total Energy       :       -511.97386835185279 Eh          -13931.51722 eV

Components:
Nuclear Repulsion  :        484.29620271209757 Eh           13178.36965 eV
Electronic Energy  :       -996.27007106395035 Eh          -27109.88687 eV
One Electron Energy:      -1661.72106710126900 Eh          -45217.72906 eV
Two Electron Energy:        665.45099603731865 Eh           18107.84219 eV

Virial components:
Potential Energy   :      -1021.40501823129284 Eh          -27793.84356 eV
Kinetic Energy     :        509.43114987944000 Eh           13862.32634 eV
Virial Ratio       :          2.00499128974154

DFT components:
N(Alpha)           :       34.999981164115 electrons
N(Beta)            :       34.999981164115 electrons
N(Total)           :       69.999962328230 electrons
E(X)               :      -62.259135298007 Eh       
E(C)               :       -3.164334506753 Eh       
E(XC)              :      -65.423469804760 Eh       

---------------
SCF CONVERGENCE
---------------

  Last Energy change         ...    4.0515e-07  Tolerance :   1.0000e-06
  Last MAX-Density change    ...    2.9478e-04  Tolerance :   1.0000e-05
  Last RMS-Density change    ...    1.9743e-05  Tolerance :   1.0000e-06
  Last DIIS Error            ...    1.0016e-03  Tolerance :   1.0000e-06
  Last Orbital Gradient      ...    1.9012e-04  Tolerance :   5.0000e-05
  Last Orbital Rotation      ...    3.8475e-04  Tolerance :   5.0000e-05


----------------
ORBITAL ENERGIES
----------------

  NO   OCC          E(Eh)            E(eV) 
   0   2.0000     -18.822140      -512.1765 
   1   2.0000     -18.818964      -512.0900 
   2   2.0000     -18.761881      -510.5367 
   3   2.0000     -18.757962      -510.4301 
   4   2.0000     -13.979576      -380.4036 
   5   2.0000     -10.042319      -273.2654 
   6   2.0000     -10.031914      -272.9822 
   7   2.0000      -9.959612      -271.0148 
   8   2.0000      -9.930505      -270.2228 
   9   2.0000      -1.030696       -28.0467 
  10   2.0000      -1.025454       -27.9040 
  11   2.0000      -0.941390       -25.6165 
  12   2.0000      -0.936883       -25.4939 
  13   2.0000      -0.816096       -22.2071 
  14   2.0000      -0.710136       -19.3238 
  15   2.0000      -0.634829       -17.2746 
  16   2.0000      -0.577125       -15.7044 
  17   2.0000      -0.535505       -14.5718 
  18   2.0000      -0.469187       -12.7672 
  19   2.0000      -0.448575       -12.2063 
  20   2.0000      -0.440762       -11.9937 
  21   2.0000      -0.423778       -11.5316 
  22   2.0000      -0.416337       -11.3291 
  23   2.0000      -0.404585       -11.0093 
  24   2.0000      -0.389412       -10.5965 
  25   2.0000      -0.370420       -10.0797 
  26   2.0000      -0.351689        -9.5699 
  27   2.0000      -0.347801        -9.4641 
  28   2.0000      -0.330908        -9.0045 
  29   2.0000      -0.322118        -8.7653 
  30   2.0000      -0.283819        -7.7231 
  31   2.0000      -0.277068        -7.5394 
  32   2.0000      -0.233576        -6.3559 
  33   2.0000      -0.227534        -6.1915 
  34   2.0000      -0.191715        -5.2168 
  35   0.0000      -0.030946        -0.8421 
  36   0.0000      -0.019153        -0.5212 
  37   0.0000       0.044974         1.2238 
  38   0.0000       0.053372         1.4523 
  39   0.0000       0.084907         2.3104 
  40   0.0000       0.116499         3.1701 
  41   0.0000       0.127304         3.4641 
  42   0.0000       0.145144         3.9496 
  43   0.0000       0.160035         4.3548 
  44   0.0000       0.167758         4.5649 
  45   0.0000       0.200970         5.4687 
*Only the first 10 virtual orbitals were printed.

                    ********************************
                    * MULLIKEN POPULATION ANALYSIS *
                    ********************************

-----------------------
MULLIKEN ATOMIC CHARGES
-----------------------
   0 C :    0.501920
   1 C :   -0.257510
   2 O :   -0.409582
   3 H :    0.320287
   4 O :   -0.449012
   5 C :   -0.050870
   6 H :    0.161608
   7 H :    0.148569
   8 C :    0.489610
   9 O :   -0.408711
  10 N :   -0.567929
  11 O :   -0.451387
  12 H :    0.265428
  13 H :    0.320570
  14 H :    0.139798
  15 H :    0.247210
Sum of atomic charges:    0.0000000

--------------------------------
MULLIKEN REDUCED ORBITAL CHARGES
--------------------------------
  0 C s       :     2.988003  s :     2.988003
      pz      :     0.892423  p :     2.383056
      px      :     0.710820
      py      :     0.779813
      dz2     :     0.038021  d :     0.127020
      dxz     :     0.028461
      dyz     :     0.013701
      dx2y2   :     0.023779
      dxy     :     0.023058

  1 C s       :     3.245915  s :     3.245915
      pz      :     0.933870  p :     2.978277
      px      :     1.008925
      py      :     1.035482
      dz2     :     0.009654  d :     0.033318
      dxz     :     0.006711
      dyz     :     0.003933
      dx2y2   :     0.006794
      dxy     :     0.006226

  2 O s       :     3.858762  s :     3.858762
      pz      :     1.383355  p :     4.522427
      px      :     1.544254
      py      :     1.594817
      dz2     :     0.008241  d :     0.028393
      dxz     :     0.005654
      dyz     :     0.005107
      dx2y2   :     0.004144
      dxy     :     0.005248

  3 H s       :     0.641729  s :     0.641729
      pz      :     0.010424  p :     0.037984
      px      :     0.008237
      py      :     0.019323

  4 O s       :     3.823909  s :     3.823909
      pz      :     1.408975  p :     4.602152
      px      :     1.464410
      py      :     1.728768
      dz2     :     0.008577  d :     0.022951
      dxz     :     0.003106
      dyz     :     0.000779
      dx2y2   :     0.005268
      dxy     :     0.005222

  5 C s       :     3.203784  s :     3.203784
      pz      :     1.035827  p :     2.788820
      px      :     0.850139
      py      :     0.902855
      dz2     :     0.014589  d :     0.058266
      dxz     :     0.009156
      dyz     :     0.006178
      dx2y2   :     0.012977
      dxy     :     0.015367

  6 H s       :     0.826587  s :     0.826587
      pz      :     0.002721  p :     0.011806
      px      :     0.002965
      py      :     0.006120

  7 H s       :     0.839887  s :     0.839887
      pz      :     0.003370  p :     0.011543
      px      :     0.005414
      py      :     0.002759

  8 C s       :     2.985471  s :     2.985471
      pz      :     0.780299  p :     2.400071
      px      :     0.734218
      py      :     0.885553
      dz2     :     0.021716  d :     0.124848
      dxz     :     0.025023
      dyz     :     0.021179
      dx2y2   :     0.033685
      dxy     :     0.023245

  9 O s       :     3.863216  s :     3.863216
      pz      :     1.540918  p :     4.517419
      px      :     1.545605
      py      :     1.430896
      dz2     :     0.006266  d :     0.028076
      dxz     :     0.007257
      dyz     :     0.005903
      dx2y2   :     0.004205
      dxy     :     0.004445

 10 N s       :     3.583513  s :     3.583513
      pz      :     1.345416  p :     3.956678
      px      :     1.127198
      py      :     1.484064
      dz2     :     0.010655  d :     0.027738
      dxz     :     0.002535
      dyz     :     0.001661
      dx2y2   :     0.003276
      dxy     :     0.009611

 11 O s       :     3.824424  s :     3.824424
      pz      :     1.701210  p :     4.604279
      px      :     1.500975
      py      :     1.402094
      dz2     :     0.003593  d :     0.022683
      dxz     :     0.005315
      dyz     :     0.004089
      dx2y2   :     0.006868
      dxy     :     0.002819

 12 H s       :     0.709681  s :     0.709681
      pz      :     0.012223  p :     0.024891
      px      :     0.004858
      py      :     0.007810

 13 H s       :     0.641659  s :     0.641659
      pz      :     0.021238  p :     0.037771
      px      :     0.007613
      py      :     0.008920

 14 H s       :     0.849205  s :     0.849205
      pz      :     0.006622  p :     0.010997
      px      :     0.001910
      py      :     0.002465

 15 H s       :     0.728838  s :     0.728838
      pz      :     0.005859  p :     0.023951
      px      :     0.008620
      py      :     0.009473



                     *******************************
                     * LOEWDIN POPULATION ANALYSIS *
                     *******************************

----------------------
LOEWDIN ATOMIC CHARGES
----------------------
   0 C :    0.118085
   1 C :   -0.138375
   2 O :   -0.210994
   3 H :    0.183250
   4 O :   -0.130926
   5 C :   -0.039946
   6 H :    0.102118
   7 H :    0.093094
   8 C :    0.094684
   9 O :   -0.214723
  10 N :   -0.250619
  11 O :   -0.138213
  12 H :    0.131242
  13 H :    0.183819
  14 H :    0.088319
  15 H :    0.129184

-------------------------------
LOEWDIN REDUCED ORBITAL CHARGES
-------------------------------
  0 C s       :     2.846920  s :     2.846920
      pz      :     1.027343  p :     2.734596
      px      :     0.901393
      py      :     0.805861
      dz2     :     0.092848  d :     0.300400
      dxz     :     0.067629
      dyz     :     0.028211
      dx2y2   :     0.057139
      dxy     :     0.054572

  1 C s       :     2.908580  s :     2.908580
      pz      :     1.027819  p :     3.153987
      px      :     1.058680
      py      :     1.067489
      dz2     :     0.024657  d :     0.075807
      dxz     :     0.014815
      dyz     :     0.008241
      dx2y2   :     0.013460
      dxy     :     0.014634

  2 O s       :     3.553386  s :     3.553386
      pz      :     1.423699  p :     4.599040
      px      :     1.563564
      py      :     1.611777
      dz2     :     0.011795  d :     0.058567
      dxz     :     0.014484
      dyz     :     0.013207
      dx2y2   :     0.008189
      dxy     :     0.010892

  3 H s       :     0.700968  s :     0.700968
      pz      :     0.031225  p :     0.115782
      px      :     0.023083
      py      :     0.061474

  4 O s       :     3.471580  s :     3.471580
      pz      :     1.415802  p :     4.608509
      px      :     1.492601
      py      :     1.700105
      dz2     :     0.018320  d :     0.050838
      dxz     :     0.009099
      dyz     :     0.001226
      dx2y2   :     0.011733
      dxy     :     0.010459

  5 C s       :     2.881215  s :     2.881215
      pz      :     1.055894  p :     3.026564
      px      :     0.966451
      py      :     1.004219
      dz2     :     0.032178  d :     0.132166
      dxz     :     0.019834
      dyz     :     0.014094
      dx2y2   :     0.029856
      dxy     :     0.036204

  6 H s       :     0.856470  s :     0.856470
      pz      :     0.008312  p :     0.041412
      px      :     0.009125
      py      :     0.023975

  7 H s       :     0.864966  s :     0.864966
      pz      :     0.012398  p :     0.041939
      px      :     0.020788
      py      :     0.008753

  8 C s       :     2.859617  s :     2.859617
      pz      :     0.887866  p :     2.746539
      px      :     0.881970
      py      :     0.976703
      dz2     :     0.046319  d :     0.299160
      dxz     :     0.065108
      dyz     :     0.051029
      dx2y2   :     0.083017
      dxy     :     0.053687

  9 O s       :     3.552670  s :     3.552670
      pz      :     1.596187  p :     4.603765
      px      :     1.581305
      py      :     1.426273
      dz2     :     0.013209  d :     0.058288
      dxz     :     0.019580
      dyz     :     0.009761
      dx2y2   :     0.007763
      dxy     :     0.007975

 10 N s       :     3.188688  s :     3.188688
      pz      :     1.352317  p :     4.005140
      px      :     1.178808
      py      :     1.474015
      dz2     :     0.018798  d :     0.056790
      dxz     :     0.006931
      dyz     :     0.003536
      dx2y2   :     0.007706
      dxy     :     0.019818

 11 O s       :     3.468705  s :     3.468705
      pz      :     1.686906  p :     4.618378
      px      :     1.524250
      py      :     1.407221
      dz2     :     0.006423  d :     0.051130
      dxz     :     0.011029
      dyz     :     0.007653
      dx2y2   :     0.015641
      dxy     :     0.010384

 12 H s       :     0.785330  s :     0.785330
      pz      :     0.046802  p :     0.083428
      px      :     0.013191
      py      :     0.023435

 13 H s       :     0.700974  s :     0.700974
      pz      :     0.068652  p :     0.115207
      px      :     0.021373
      py      :     0.025182

 14 H s       :     0.872635  s :     0.872635
      pz      :     0.026171  p :     0.039045
      px      :     0.005940
      py      :     0.006935

 15 H s       :     0.791237  s :     0.791237
      pz      :     0.016025  p :     0.079578
      px      :     0.029520
      py      :     0.034033



                      *****************************
                      * MAYER POPULATION ANALYSIS *
                      *****************************

  NA   - Mulliken gross atomic population
  ZA   - Total nuclear charge
  QA   - Mulliken gross atomic charge
  VA   - Mayer's total valence
  BVA  - Mayer's bonded valence
  FA   - Mayer's free valence

  ATOM       NA         ZA         QA         VA         BVA        FA
  0 C      5.4981     6.0000     0.5019     3.9893     3.9893     0.0000
  1 C      6.2575     6.0000    -0.2575     3.8098     3.8098    -0.0000
  2 O      8.4096     8.0000    -0.4096     2.1245     2.1245    -0.0000
  3 H      0.6797     1.0000     0.3203     0.9159     0.9159    -0.0000
  4 O      8.4490     8.0000    -0.4490     2.0647     2.0647    -0.0000
  5 C      6.0509     6.0000    -0.0509     3.8958     3.8958    -0.0000
  6 H      0.8384     1.0000     0.1616     0.9502     0.9502    -0.0000
  7 H      0.8514     1.0000     0.1486     0.9551     0.9551     0.0000
  8 C      5.5104     6.0000     0.4896     3.9457     3.9457     0.0000
  9 O      8.4087     8.0000    -0.4087     2.1046     2.1046     0.0000
 10 N      7.5679     7.0000    -0.5679     2.8946     2.8946     0.0000
 11 O      8.4514     8.0000    -0.4514     2.0300     2.0300     0.0000
 12 H      0.7346     1.0000     0.2654     0.9376     0.9376    -0.0000
 13 H      0.6794     1.0000     0.3206     0.9148     0.9148    -0.0000
 14 H      0.8602     1.0000     0.1398     0.9423     0.9423    -0.0000
 15 H      0.7528     1.0000     0.2472     0.9291     0.9291     0.0000

  Mayer bond orders larger than 0.100000
B(  0-C ,  1-C ) :   0.9517 B(  0-C ,  4-O ) :   1.1069 B(  0-C ,  9-O ) :   1.8864 
B(  1-C ,  5-C ) :   0.9686 B(  1-C ,  6-H ) :   0.9265 B(  1-C ,  7-H ) :   0.9268 
B(  2-O ,  8-C ) :   1.9344 B(  3-H , 11-O ) :   0.8502 B(  4-O , 13-H ) :   0.8518 
B(  5-C ,  8-C ) :   0.8844 B(  5-C , 10-N ) :   1.0743 B(  5-C , 14-H ) :   0.9208 
B(  8-C , 11-O ) :   1.0775 B( 10-N , 12-H ) :   0.8724 B( 10-N , 15-H ) :   0.9014 


-------
TIMINGS
-------

Total SCF time: 0 days 0 hours 0 min 3 sec 

Total time                  ....       3.632 sec
Sum of individual times     ....       3.313 sec  ( 91.2%)

SCF preparation             ....       0.025 sec  (  0.7%)
Fock matrix formation       ....       3.247 sec  ( 89.4%)
  Startup                   ....       0.001 sec  (  0.0% of F)
  Split-RI-J                ....       1.111 sec  ( 34.2% of F)
  XC integration            ....       2.443 sec  ( 75.2% of F)
    Basis function eval.    ....       0.820 sec  ( 33.6% of XC)
    Density eval.           ....       0.526 sec  ( 21.5% of XC)
    XC-Functional eval.     ....       0.450 sec  ( 18.4% of XC)
    XC-Potential eval.      ....       0.579 sec  ( 23.7% of XC)
Diagonalization             ....       0.000 sec  (  0.0%)
Density matrix formation    ....       0.009 sec  (  0.3%)
Total Energy calculation    ....       0.000 sec  (  0.0%)
Population analysis         ....       0.002 sec  (  0.1%)
Orbital Transformation      ....       0.004 sec  (  0.1%)
Orbital Orthonormalization  ....       0.000 sec  (  0.0%)
DIIS solution               ....       0.021 sec  (  0.6%)
SOSCF solution              ....       0.005 sec  (  0.1%)
Finished LeanSCF after   3.6 sec

Maximum memory used throughout the entire LEANSCF-calculation: 17.4 MB



-------------------------------------------------------------------------------
                          DFT DISPERSION CORRECTION                            
-------------------------------------------------------------------------------
Active option DFTDOPT                   ...         2   
Final C6-coefficient scaling factor     ...     1.250
Final VDW-radii scaling factor          ...     1.100
Damping factor alpha                    ...    20.000
-------------------------   ----------------
Dispersion correction           -0.020388829
-------------------------   ----------------


-------------------------   --------------------
FINAL SINGLE POINT ENERGY      -511.994257181139
-------------------------   --------------------


------------------------------------------------------------------------------
                              ORCA PROPERTY CALCULATIONS
------------------------------------------------------------------------------

GBWName                                 ... 4.gbw
Number of atoms                         ...     16
Number of basis functions               ...    161
Max core memory                         ...   4096 MB

Electric properties:
Dipole moment                           ... YES
Quadrupole moment                       ...  NO
Static polarizability (Dipole/Dipole)   ...  NO
Static polarizability (Dipole/Quad.)    ...  NO
Static polarizability (Quad./Quad.)     ...  NO
Static polarizability (Velocity)        ...  NO
Static hyperpolarizability              ...  NO

Atomic electric properties:
Dipole moment                           ...  NO
Quadrupole moment                       ...  NO
Static polarizability                   ...  NO

Choice of electric origin               ... Center of mass
Position of electric origin             ...    -6.480705     4.301941     1.055556

General magnetic properties:
Magnetizability                         ...  NO

EPR properties:
g-Tensor (aka g-matrix)                 ...  NO
Zero-Field splitting spin-orbit         ...  NO
Zero-field splitting spin-spin          ...  NO
Hyperfine couplings                     ...  NO (   0 nuclei)
Quadrupole couplings                    ...  NO (   0 nuclei)
Contact density                         ...  NO (   0 nuclei)

NMR properties:
Chemical shifts                         ...  NO (   0 nuclei)
Spin-rotation constants                 ...  NO (   0 nuclei)
Spin-spin couplings                     ...  NO (   0 nuclei,    0 pairs)

Choice of magnetic origin               ... GIAO
Position of magnetic origin             ...     0.000000     0.000000     0.000000

Properties with geometric perturbations:
SCF Hessian                             ...  NO
IR spectrum                             ...  NO
VCD spectrum                            ...  NO
X-ray spectroscopy properties:
SCF XES/XAS/RIXS spectra                ...  NO

SCF SOC stabilization energy            ...  NO
Diagonal Born-Oppenheimer correction    ...  NO

-------------
DIPOLE MOMENT
-------------

Method             : SCF
Type of density    : Electron Density
Multiplicity       :   1
Irrep              :   0
Energy             :  -511.9738683518527864 Eh
Basis              : AO
                                X                 Y                 Z
Electronic contribution:     -1.728330651       2.122983212       2.779468035
Nuclear contribution   :      0.679457390      -1.731916692      -3.080565710
                        -----------------------------------------
Total Dipole Moment    :     -1.048873261       0.391066520      -0.301097676
                        -----------------------------------------
Magnitude (a.u.)       :      1.159192801
Magnitude (Debye)      :      2.946433944



--------------------
Rotational spectrum 
--------------------
 
Rotational constants in cm-1:             0.071303             0.048217             0.038944 
Rotational constants in MHz :          2137.602387          1445.507077          1167.502067 

Dipole components along the rotational axes: 
x,y,z [a.u.] :    -0.064505    -1.080255    -0.415472 
x,y,z [Debye]:    -0.163958    -2.745789    -1.056045 

 

Dipole moment calculation done in   0.0 sec 

Maximum memory used throughout the entire PROP-calculation: 9.9 MB

--------------------------------
SUGGESTED CITATIONS FOR THIS RUN
--------------------------------

Below you find a list of papers that are relevant to this ORCA run
We neither can nor want to force you to cite these papers, but we appreciate if you do
You receive ORCA, which is the product of decades of hard work by many enthusiastic individuals, for free
The only thing we kindly ask in return is that you cite our papers,
We deeply appreciate it, if you show your appreciation for ORCA by not just citing the generic ORCA reference.

Please note that relegating all ORCA citations to the supporting information does *not* help us.
SI sections are not indexed - citations you put there will not count into any citation statistics
But we need these citations in order to attract the funding resources that allow us to do what we are doing

Therefore, if you are a happy ORCA user, please consider citing a few of the papers listed below in the main body of your paper

In addition to the list printed below, the program has created the file 4.bibtex that contains the list in bibtex format
You can import this file easily into all common literature databanks and citation aid programs


List of essential papers. We consider these as the minimum necessary citations

  1. Neese, F.
     Software update: the ORCA program system, version 6.0
     WIRES Comput. Molec. Sci. 2025 15(1), e70019
     doi.org/10.1002/wcms.7019

List of papers to cite with high priority. The work reported in these papers was absolutely
necessary for this run to complete.
Our perspective: the developers of density functionals and basis sets usually get cited in chemistry papers
Good! But without the algorithms to do something with them, the functionals or basis sets would not do anything.
Hence, in our opinion, the algorithm design and method developments papers are equally worthy of getting cited

  1. Neese, F.
     An improvement of the resolution of the identity approximation for the formation of the Coulomb matrix
     J. Comp. Chem. 2003 24(14), 1740-1747
     doi.org/10.1002/jcc.10318
  2. Grimme, S.
     Semiempirical GGA-type density functional constructed with a long-range dispersion correction
     J.Comput.Chem. 2006 27(15), 1787-1799
     doi.org/10.1002/jcc.20495
  3. Neese, F.
     The SHARK Integral Generation and Digestion System
     J. Comp. Chem. 2022 44(3), 381
     doi.org/10.1002/jcc.26942

List of suggested additional citations. These are papers that are important in the 'surrounding' of 
of this run, or papers that preceded the highly important papers. If you like your results we are grateful for a citation.

  1. Neese, F.
     The ORCA program system
     WIRES Comput. Molec. Sci. 2012 2(1), 73-78
     doi.org/10.1002/wcms.81
  2. Neese, F.
     Software update: the ORCA program system, version 4.0
     WIRES Comput. Molec. Sci. 2018 8(1), 1-6
     doi.org/10.1002/wcms.1327
  3. Neese, F.; Wennmohs, F.; Becker, U.; Riplinger, C.
     The ORCA quantum chemistry program package
     J. Chem. Phys. 2020 152(22), 224108
     doi.org/10.1063/5.0004608
  4. Neese, F.
     Software update: The ORCA program system—Version 5.0
     WIRES Comput. Molec. Sci. 2022 12(1), e1606
     doi.org/10.1002/wcms.1606

List of optional additional citations

  1. Neese, F.
     Approximate second-order SCF convergence for spin unrestricted wavefunctions
     Chem. Phys. Lett. 2000 325(1-3), 93-98
     doi.org/10.1016/s0009-2614(00)00662-x

Timings for individual modules:

Sum of individual times          ...        4.267 sec (=   0.071 min)
Startup calculation              ...        0.357 sec (=   0.006 min)   8.4 %
SCF iterations                   ...        3.879 sec (=   0.065 min)  90.9 %
Property calculations            ...        0.030 sec (=   0.001 min)   0.7 %
                             ****ORCA TERMINATED NORMALLY****
TOTAL RUN TIME: 0 days 0 hours 0 minutes 4 seconds 308 msec
