
                                 *****************
                                 * O   R   C   A *
                                 *****************

                                            #,                                       
                                            ###                                      
                                            ####                                     
                                            #####                                    
                                            ######                                   
                                           ########,                                 
                                     ,,################,,,,,                         
                               ,,#################################,,                 
                          ,,##########################################,,             
                       ,#########################################, ''#####,          
                    ,#############################################,,   '####,        
                  ,##################################################,,,,####,       
                ,###########''''           ''''###############################       
              ,#####''   ,,,,##########,,,,          '''####'''          '####       
            ,##' ,,,,###########################,,,                        '##       
           ' ,,###''''                  '''############,,,                           
         ,,##''                                '''############,,,,        ,,,,,,###''
      ,#''                                            '''#######################'''  
     '                                                          ''''####''''         
             ,#######,   #######,   ,#######,      ##                                
            ,#'     '#,  ##    ##  ,#'     '#,    #''#        ,####,    ,#,          
            ##       ##  ##   ,#'  ##            #'  '#       #'       ,# #          
            ##       ##  #######   ##           ,######,      #####,      #          
            '#,     ,#'  ##    ##  '#,     ,#' ,#      #,     #,   #      #          
             '#######'   ##     ##  '#######'  #'      '#     '####' #    #          



                #########################################################
                #                        -***-                          #
                #          Department of theory and spectroscopy        #
                #                                                       #
                #                      Frank Neese                      #
                #                                                       #
                #     Directorship, Architecture, Infrastructure        #
                #                    SHARK, DRIVERS                     #
                #        Core code/Algorithms in most modules           #
                #                                                       #
                #        Max Planck Institute fuer Kohlenforschung      #
                #                Kaiser Wilhelm Platz 1                 #
                #                 D-45470 Muelheim/Ruhr                 #
                #                      Germany                          #
                #                                                       #
                #                  All rights reserved                  #
                #                        -***-                          #
                #########################################################


                         Program Version 6.1.0  -  RELEASE   -
                                (GIT: $679e74b$)
                          ($2025-06-10 18:02:51 +0200$)


 With contributions from (in alphabetic order):
[Max-Planck-Institut fuer Kohlenforschung]                               
  Daniel Aravena         : Magnetic Suceptibility                        
  Michael Atanasov       : Ab Initio Ligand Field Theory (pilot matlab implementation)
  Alexander A. Auer      : GIAO ZORA, VPT2 properties, NMR spectrum      
  Ute Becker             : All parallelization in ORCA, NUMFREQ, NUMCALC 
  Giovanni Bistoni       : ED, misc. LED, open-shell LED, HFLD           
  Dmytro Bykov           : pre 5.0 version of the SCF Hessian            
  Marcos Casanova-Páez   : Triplet and SCS-CIS(D). UHF-(DLPNO)-IP/EA/STEOM-CCSD. UHF-CVS-IP/STEOM-CCSD   
  Vijay G. Chilkuri      : MRCI spin determinant printing, contributions to CSF-ICE 
  Pauline Colinet        : FMM embedding                                 
  Dipayan Datta          : RHF DLPNO-CCSD density                        
  Achintya Kumar Dutta   : EOM-CC, STEOM-CC                              
  Nicolas Foglia         : Exact transition moments, OPA infrastructure, MCD improvements    
  Dmitry Ganyushin       : Spin-Orbit,Spin-Spin,Magnetic field MRCI      
  Miquel Garcia-Rates    : C-PCM and meta-GGA Hessian, CCSD/C-PCM, Gaussian charge scheme 
  Tiago L. C. Gouveia    : GS-ROHF, GS-ROCIS                             
  Yang Guo               : DLPNO-NEVPT2, F12-NEVPT2, CIM, IAO-localization        
  Andreas Hansen         : Spin unrestricted coupled pair/coupled cluster methods 
  Ingolf Harden          : AUTO-CI MPn and infrastructure                
  Benjamin Helmich-Paris : MC-RPA, TRAH-(SCF,CASSCF), AVAS, COSX integrals, SCF dyn. polar., MC-PDFT, srDFT 
  Lee Huntington         : MR-EOM, pCC                                   
  Robert Izsak           : Overlap fitted RIJCOSX, COSX-SCS-MP3, EOM     
  Riya Kayal             : Wick's Theorem for AUTO-CI, AUTO-CI UHF-CCSDT 
  Emily Kempfer          : AUTO-CI RHF CISDT and CCSDT, approximate NEVPT4
  Christian Kollmar      : KDIIS, OOCD, Brueckner-CCSD(T), CCSD density, CASPT2, CASPT2-K, improved NEVPT2 
  Axel Koslowski         : Symmetry handling                             
  Simone Kossmann        : meta-GGA functionals, TD-DFT gradient, OOMP2, (MP2 Hessian; deprecated post 5.0) 
  Lucas Lang             : DCDCAS, Hyperfine gauge corrections, ICE-SOC+SSC
  Marvin Lechner         : AUTO-CI (C++ implementation), FIC-MRCC        
  Spencer Leger          : CASSCF response                               
  Dagmar Lenk            : GEPOL surface, SMD, ORCA-2-JSON               
  Dimitrios Liakos       : Extrapolation schemes; Compound Job, Property file
  Dimitrios Manganas     : Further ROCIS development; embedding schemes. LFT, Crystal Embedding 
  Dimitrios Pantazis     : SARC Basis sets                               
  Anastasios Papadopoulos: AUTO-CI, single reference methods and gradients 
  Taras Petrenko         : pre 6.0 DFT Hessian and TD-DFT gradient,  ECA, NRVS 
  Petra Pikulova         : Analytic Raman intensities                    
  Peter Pinski           : DLPNO-MP2, DLPNO-MP2 Gradient                 
  Shashank Vittal Rao    : ES-AILFT, MagRelax                            
  Christoph Reimann      : Effective Core Potentials                     
  Marius Retegan         : Local ZFS, SOC                                
  Christoph Riplinger    : Optimizer, TS searches, QM/MM, DLPNO-CCSD(T), (RO)-DLPNO pert. Triples 
  Michael Roemelt        : Original ROCIS implementation, recursive CI coupling coefficients
  Masaaki Saitow         : Open-shell DLPNO-CCSD energy and density      
  Barbara Sandhoefer     : DKH picture change effects                    
  Yorick L. A. Schmerwitz: GMF and freeze-and-release deltaSCF, NEB S-IDPP initial path                    
  Kantharuban Sivalingam : CASSCF convergence/infrastructure, NEVPT2, NEVPT3, NEVPT4(SD), FIC-MRCI and CEPA variants
  Bernardo de Souza      : ESD, SOC TD-DFT                               
  Georgi L. Stoychev     : AutoAux, RI-MP2 NMR, DLPNO-MP2 response, X2C  
  Van Anh Tran           : RI-MP2 g-tensors                              
  Willem Van den Heuvel  : Paramagnetic NMR                              
  Zikuan Wang            : NOTCH, Electric field optimization            
  Frank Wennmohs         : Technical directorship and infrastructure     
  Hang Xu                : AUTO-CI-Response properties                   
                                                                         
[FACCTs GmbH]                                                            
  Markus Bursch, Nicolas Foglia, Miquel Garcia-Rates, Ingolf Harden, Hagen Neugebauer, Anastasios Papadopoulos, 
  Christoph Riplinger, Bernardo de Souza, Georgi L. Stoychev                                                    
                                                                 
  APM, various basis sets, CI-OPT, improved COSX, DLPNO-Multilevel,           
  DOCKER, DRACO, updates on ESD, Fragmentator, GOAT, IRC, LR-CPCM, L-BFGS, MBIS, meta-GGA TD-DFT gradient, ML-optimized integration grids, 
  MM, NACMEs, nearIR, NEB, NEB-TS, NL-DFT gradient (VV10), 2- and 3-layer-ONIOM, interface openCOSMO-RS, QMMM,   
  Crystal-QMMM, RESP, rigid body optimization, SF, symmetry and pop. for TD-DFT, various functionals, SOLVATOR                                   
                                                                         
[Other institutions]                                                     
  V. Asgeirsson          : NEB                                           
  Christoph Bannwarth    : sTDA-DFT, sTD-DFT, PBEh-3c, B97-3c, D3        
  Giovanni Bistoni       : ETS/NOCV, ADLD/ADEX, COVALED                  
  Martin Brehm           : Molecular dynamics                            
  Ronald Cardenas        : ETS/NOCV                                      
  Martina Colucci        : COVALED                                       
  Sebastian Ehlert       : rSCAN, r2SCAN, r2SCAN-3c, D4, dhf basis sets  
  Marvin Friede          : D4 for Fr, Ra, Ac-Lr                          
  Lars Goerigk           : TD-DFT with DH, B97 family of functionals     
  Stefan Grimme          : VdW corrections, initial TS optimization, DFT functionals, gCP, sTDA/sTD-DF 
  Waldemar Hujo          : DFT-NL                                        
  H. Jonsson             : NEB                                           
  Holger Kruse           : gCP                                           
  Marcel Mueller         : wB97X-3c, vDZP basis set                      
  Hagen Neugebauer       : wr2SCAN, Native XTB                           
  Gianluca Regni         : ADLD/ADEX                                     
  Tobias Risthaus        : pre 6.0 range-separated hybrid DFT and stability analysis
  Lukas Wittmann         : regularized MP2, r2SCAN double-hybrids, wr2SCAN        
                                                                         
We gratefully acknowledge several colleagues who have allowed us to      
interface, adapt or use parts of their codes:                            
  Ed Valeev, F. Pavosevic, A. Kumar             : LibInt (2-el integral package), F12 methods 
  Garnet Chan, S. Sharma, J. Yang, R. Olivares  : DMRG                   
  Ulf Ekstrom                                   : XCFun DFT Library      
  Mihaly Kallay                                 : mrcc  (arbitrary order and MRCC methods)
  Frank Weinhold                                : gennbo (NPA and NBO analysis)           
  Simon Mueller                                 : openCOSMO-RS                            
  Christopher J. Cramer and Donald G. Truhlar   : smd solvation model                     
  S Lehtola, MJT Oliveira, MAL Marques          : LibXC Library                           
  Liviu Ungur et al                             : ANISO software                          


 Your calculation uses the libint2 library for the computation of 2-el integrals
 For citations please refer to: http://libint.valeyev.net

 Your ORCA version has been built with support for libXC version: 7.0.0
 For citations please refer to: https://libxc.gitlab.io

 This ORCA versions uses:
   CBLAS   interface :  Fast vector & matrix operations
   LAPACKE interface :  Fast linear algebra routines
   SCALAPACK package :  Parallel linear algebra routines
   Shared memory     :  Shared parallel matrices
   BLAS/LAPACK       :  OpenBLAS 0.3.29  USE64BITINT DYNAMIC_ARCH NO_AFFINITY Haswell SINGLE_THREADED
        Core in use  :  Haswell
   Copyright (c) 2011-2014, The OpenBLAS Project


  ***********************************
  * Starting time: Thu Aug 14 00:55:33 2025
  * Host name:     CHEMLAB02
  * Process ID:    1542835
  * Working dir.:  /home/vivek/mm-project/vivek/MP2/f/1
  ***********************************



***************************************
The coordinates will be read from file: /home/vivek/mm-project/vivek/xtb-goat/f/F_CONF/1.xyz
***************************************


================================================================================

----- Orbital basis set information -----
Your calculation utilizes the basis: 6-31G**
   H-He, Li-Ne : W. J. Hehre, R. Ditchfield and J.A. Pople, J. Chem. Phys. 56, 2257 (1972).
                 Note: He and Ne are unpublished basis sets taken from the Gaussian program.
                 Note: Li and B from J. D. Dill and J. A. Pople, J. Chem. Phys. 62, 2921 (1975).
   Na - Ar     : M. M. Francl, W. J. Pietro, W. J. Hehre, J. S. Binkley, M. S. Gordon, 
                 D. J. DeFrees and J. A. Pople, J. Chem. Phys. 77, 3654 (1982).
   K - Zn      : V. A. Rassolov, J. A. Pople, M. A. Ratner, and T. L. Windus, J. Chem. Phys. 109, 1223 (1998).

================================================================================
                                        WARNINGS
                       Please study these warnings very carefully!
================================================================================


WARNING: No MP2 level density has been requested!
         To calculate MP2 level properties use
         %mp2 Density relaxed end
         or
         %mp2 Density unrelaxed end

WARNING: Post HF methods need fully converged wavefunctions
  ===> : Setting SCFConvForced true
         You can overwrite this default with %scf ConvForced false 


================================================================================
                                       INPUT FILE
================================================================================
NAME = 1.inp
|  1> ! MP2 6-31G** 
|  2> 
|  3> * xyzfile 0 1 /home/vivek/mm-project/vivek/xtb-goat/f/F_CONF/1.xyz
|  4> 
|  5>                          ****END OF INPUT****
================================================================================

                       ****************************
                       * Single Point Calculation *
                       ****************************

---------------------------------
CARTESIAN COORDINATES (ANGSTROEM)
---------------------------------
  C     -6.310255    0.103756   -0.403478
  C     -5.323864    0.191432   -1.370210
  C     -5.246177    1.864696    0.828463
  H     -7.037927    0.881095    1.453007
  H     -5.218113    2.520629    1.686775
  C     -4.300731    1.113438   -1.235824
  C     -3.121500    2.933674    0.032640
  H     -5.350815   -0.460032   -2.231709
  C     -4.250709    1.959866   -0.136050
  H     -7.108923   -0.615864   -0.506952
  C     -6.269519    0.943936    0.696360
  H     -3.531438    1.177800   -1.993101
  C     -2.048712    2.392094    1.004032
  H     -2.643169    3.135299   -0.927959
  H     -3.480054    3.877356    0.445497
  C     -1.485572    1.107503    0.409401
  H     -1.777776   -0.779774    0.410344
  N     -1.033358    3.407573    1.200396
  O     -2.130122    0.018898    0.835764
  H     -0.356569    3.105500    1.893361
  O     -0.560284    1.064033   -0.358950
  H     -2.516364    2.155659    1.964490
  H     -0.529549    3.549274    0.329370

----------------------------
CARTESIAN COORDINATES (A.U.)
----------------------------
  NO LB      ZA    FRAG     MASS         X           Y           Z
   0 C     6.0000    0    12.011  -11.924653    0.196070   -0.762463
   1 C     6.0000    0    12.011  -10.060644    0.361754   -2.589321
   2 C     6.0000    0    12.011   -9.913837    3.523764    1.565569
   3 H     1.0000    0     1.008  -13.299754    1.665028    2.745786
   4 H     1.0000    0     1.008   -9.860805    4.763299    3.187542
   5 C     6.0000    0    12.011   -8.127204    2.104094   -2.335370
   6 C     6.0000    0    12.011   -5.898780    5.543840    0.061681
   7 H     1.0000    0     1.008  -10.111576   -0.869334   -4.217318
   8 C     6.0000    0    12.011   -8.032677    3.703609   -0.257098
   9 H     1.0000    0     1.008  -13.433918   -1.163815   -0.958001
  10 C     6.0000    0    12.011  -11.847674    1.783780    1.315929
  11 H     1.0000    0     1.008   -6.673451    2.225719   -3.766414
  12 C     6.0000    0    12.011   -3.871505    4.520402    1.897346
  13 H     1.0000    0     1.008   -4.994866    5.924857   -1.753589
  14 H     1.0000    0     1.008   -6.576349    7.327141    0.841868
  15 C     6.0000    0    12.011   -2.807325    2.092878    0.773656
  16 H     1.0000    0     1.008   -3.359510   -1.473560    0.775438
  17 N     7.0000    0    14.007   -1.952764    6.439380    2.268419
  18 O     8.0000    0    15.999   -4.025348    0.035713    1.579366
  19 H     1.0000    0     1.008   -0.673817    5.868545    3.577935
  20 O     8.0000    0    15.999   -1.058784    2.010731   -0.678316
  21 H     1.0000    0     1.008   -4.755239    4.073605    3.712348
  22 H     1.0000    0     1.008   -1.000703    6.707156    0.622420

--------------------------------
INTERNAL COORDINATES (ANGSTROEM)
--------------------------------
 C      0   0   0     0.000000000000     0.00000000     0.00000000
 C      1   0   0     1.383916450797     0.00000000     0.00000000
 C      1   2   0     2.398093130343    89.77500033     0.00000000
 H      3   1   2     2.137263115236    55.95738853   179.90134341
 H      3   1   2     1.080617686173   149.91490890   179.67410332
 C      2   1   3     1.383819178885   120.08942068     0.06178968
 C      3   1   2     2.508046893327   121.72637282   358.86905533
 H      2   1   3     1.080422197302   120.06766783   180.05600325
 C      6   2   1     1.388684203980   120.64035140   359.92255233
 H      1   2   3     1.080014707411   120.15666478   179.97707021
 C      4   3   1     1.080238228412    34.12757072     0.00000000
 H      6   2   1     1.081397870138   119.84247303   179.93409154
 C      7   3   1     1.545246001280   103.84394183   252.53920391
 H      7   3   1     1.091881228411   136.80078879    29.78812399
 H      7   3   1     1.090664209106    88.29064282   145.37664006
 C     13   7   3     1.523445236981   107.86600369    90.26006118
 H     16  13   7     1.909764552550   140.94438274   269.78920518
 N     13   7   3     1.449378956606   109.02392932   212.85461354
 O     17  16  13     0.971086270282    40.79636959   356.17280081
 H     18  13   7     1.014639809691   110.56203277   175.37790363
 O     16  13   7     1.203499138000   124.32224414    87.96586190
 H     13   7   3     1.094111061493   109.31963614   332.38648040
 H     18  13   7     1.016163097587   109.20185192   293.13122496

---------------------------
INTERNAL COORDINATES (A.U.)
---------------------------
 C      0   0   0     0.000000000000     0.00000000     0.00000000
 C      1   0   0     2.615223084235     0.00000000     0.00000000
 C      1   2   0     4.531739259987    89.77500033     0.00000000
 H      3   1   2     4.038841963928    55.95738853   179.90134341
 H      3   1   2     2.042071482339   149.91490890   179.67410332
 C      2   1   3     2.615039266960   120.08942068     0.06178968
 C      3   1   2     4.739521759421   121.72637282   358.86905533
 H      2   1   3     2.041702061909   120.06766783   180.05600325
 C      6   2   1     2.624232832025   120.64035140   359.92255233
 H      1   2   3     2.040932017614   120.15666478   179.97707021
 C      4   3   1     2.041354411092    34.12757072     0.00000000
 H      6   2   1     2.043545816367   119.84247303   179.93409154
 C      7   3   1     2.920091751956   103.84394183   252.53920391
 H      7   3   1     2.063356492466   136.80078879    29.78812399
 H      7   3   1     2.061056659280    88.29064282   145.37664006
 C     13   7   3     2.878894277922   107.86600369    90.26006118
 H     16  13   7     3.608931984590   140.94438274   269.78920518
 N     13   7   3     2.738929292253   109.02392932   212.85461354
 O     17  16  13     1.835087103243    40.79636959   356.17280081
 H     18  13   7     1.917391364890   110.56203277   175.37790363
 O     16  13   7     2.274283773231   124.32224414    87.96586190
 H     13   7   3     2.067570266315   109.31963614   332.38648040
 H     18  13   7     1.920269961836   109.20185192   293.13122496

---------------------
BASIS SET INFORMATION
---------------------
There are 4 groups of distinct atoms

 Group   1 Type C   : 10s4p1d contracted to 3s2p1d pattern {631/31/1}
 Group   2 Type H   : 4s1p contracted to 2s1p pattern {31/1}
 Group   3 Type N   : 10s4p1d contracted to 3s2p1d pattern {631/31/1}
 Group   4 Type O   : 10s4p1d contracted to 3s2p1d pattern {631/31/1}

Atom   0C    basis set group =>   1
Atom   1C    basis set group =>   1
Atom   2C    basis set group =>   1
Atom   3H    basis set group =>   2
Atom   4H    basis set group =>   2
Atom   5C    basis set group =>   1
Atom   6C    basis set group =>   1
Atom   7H    basis set group =>   2
Atom   8C    basis set group =>   1
Atom   9H    basis set group =>   2
Atom  10C    basis set group =>   1
Atom  11H    basis set group =>   2
Atom  12C    basis set group =>   1
Atom  13H    basis set group =>   2
Atom  14H    basis set group =>   2
Atom  15C    basis set group =>   1
Atom  16H    basis set group =>   2
Atom  17N    basis set group =>   3
Atom  18O    basis set group =>   4
Atom  19H    basis set group =>   2
Atom  20O    basis set group =>   4
Atom  21H    basis set group =>   2
Atom  22H    basis set group =>   2
------------------------------------------------------------------------------
                             ORCA STARTUP CALCULATIONS
------------------------------------------------------------------------------
------------------------------------------------------------------------------
                   ___                                                        
                  /   \      - P O W E R E D   B Y -                         
                 /     \                                                     
                 |  |  |   _    _      __       _____    __    __             
                 |  |  |  | |  | |    /  \     |  _  \  |  |  /  |          
                  \  \/   | |  | |   /    \    | | | |  |  | /  /          
                 / \  \   | |__| |  /  /\  \   | |_| |  |  |/  /          
                |  |  |   |  __  | /  /__\  \  |    /   |      \           
                |  |  |   | |  | | |   __   |  |    \   |  |\   \          
                \     /   | |  | | |  |  |  |  | |\  \  |  | \   \       
                 \___/    |_|  |_| |__|  |__|  |_| \__\ |__|  \__/        
                                                                              
                      - O R C A' S   B I G   F R I E N D -                    
                                      &                                       
                       - I N T E G R A L  F E E D E R -                       
                                                                              
 v1 FN, 2020, v2 2021, v3 2022-2024                                           
------------------------------------------------------------------------------


----------------------
SHARK INTEGRAL PACKAGE
----------------------

Number of atoms                             ...     23
Number of basis functions                   ...    223
Number of shells                            ...    105
Maximum angular momentum                    ...      2
Integral batch strategy                     ... SHARK/LIBINT Hybrid
RI-J (if used) integral strategy            ... SPLIT-RIJ (Revised 2003 algorithm where possible)
Printlevel                                  ...      1
Contraction scheme used                     ... SEGMENTED contraction
Prescreening option                         ... SCHWARTZ
   Thresh                                   ... 1.000e-10
   Tcut                                     ... 1.000e-11
   Tpresel                                  ... 1.000e-11 
Coulomb Range Separation                    ... NOT USED
Exchange Range Separation                   ... NOT USED
Multipole approximations                    ... NOT USED
Finite Nucleus Model                        ... NOT USED
CABS basis                                  ... NOT available
Auxiliary Coulomb fitting basis             ... NOT available
Auxiliary J/K fitting basis                 ... NOT available
Auxiliary Correlation fitting basis         ... NOT available
Auxiliary 'external' fitting basis          ... NOT available

Checking pre-screening integrals            ... done (  0.0 sec) Dimension = 105
   => SHARK Basis and OBASIS are compatible. Storing Pre-screening
Shell pair information
Shell pair cut-off parameter TPreSel        ...   1.0e-11
Total number of shell pairs                 ...      5565
Shell pairs after pre-screening             ...      4770
Total number of primitive shell pairs       ...     28015
Primitive shell pairs kept                  ...     15054
          la=0 lb=0:   1456 shell pairs
          la=1 lb=0:   1740 shell pairs
          la=1 lb=1:    547 shell pairs
          la=2 lb=0:    593 shell pairs
          la=2 lb=1:    366 shell pairs
          la=2 lb=2:     68 shell pairs

Checking whether 4 symmetric matrices of dimension 223 fit in memory
:Max Core in MB      =   4096.00
 MB in use           =      7.63
 MB left             =   4088.37
 MB needed           =      0.76
 Data fit in memory  = YES
Calculating Nuclear repulsion               ... done (  0.0 sec) ENN=    693.576787174977 Eh

Diagonalization of the overlap matrix:
Smallest eigenvalue                        ... 4.361e-04
Time for diagonalization                   ...    0.003 sec
Threshold for overlap eigenvalues          ... 1.000e-07
Number of eigenvalues below threshold      ... 0
Time for construction of square roots      ...    0.001 sec
Total time needed                          ...    0.004 sec

-------------------
DFT GRID GENERATION
-------------------

General Integration Accuracy     IntAcc      ... 4.388
Radial Grid Type                 RadialGrid  ... OptM3 with GC (2021)
Angular Grid (max. ang.)         AngularGrid ... 4 (Lebedev-302)
Angular grid pruning method      GridPruning ... 4 (adaptive)
Weight generation scheme         WeightScheme... mBecke (2022)
Basis function cutoff            BFCut       ... 1.0000e-10
Integration weight cutoff        WCut        ... 1.0000e-14
Partially contracted basis set               ... off
Rotationally invariant grid construction     ... off
Angular grids for H and He will be reduced by one unit

Total number of grid points                  ...   107264
Total number of batches                      ...     1689
Average number of points per batch           ...       63
Average number of grid points per atom       ...     4664
Grids setup in   0.5 sec
Initializing property integral containers    ... done (  0.0 sec)

SHARK setup successfully completed in   0.5 seconds

Maximum memory used throughout the entire STARTUP-calculation: 43.5 MB
-------------------------------------------------------------------------------
                                 ORCA GUESS
                   Start orbitals & Density for SCF / CASSCF
-------------------------------------------------------------------------------

------------
SCF SETTINGS
------------
Hamiltonian:
 Ab initio Hamiltonian  Method          .... Hartree-Fock(GTOs)


General Settings:
 Integral files         IntName         .... 1
 Hartree-Fock type      HFTyp           .... RHF
 Total Charge           Charge          ....    0
 Multiplicity           Mult            ....    1
 Number of Electrons    NEL             ....   88
 Basis Dimension        Dim             ....  223
 Nuclear Repulsion      ENuc            ....    693.5767871750 Eh

Convergence Acceleration:
 AO-DIIS                CNVDIIS         .... on
   Start iteration      DIISMaxIt       ....    12
   Startup error        DIISStart       ....  0.200000
   # of expansion vecs  DIISMaxEq       ....     5
   Bias factor          DIISBfac        ....   1.050
   Max. coefficient     DIISMaxC        ....  10.000
 MO-DIIS                CNVKDIIS        .... off
 Trust-Rad. Augm. Hess. CNVTRAH         .... auto
   Auto Start mean grad. ratio tolernc. ....  1.125000
   Auto Start start iteration           ....    50
   Auto Start num. interpolation iter.  ....    10
   Max. Number of Micro iterations      ....    24
   Max. Number of Macro iterations      .... Maxiter - #DIIS iter
   Number of Davidson start vectors     ....     2
   Converg. threshold    (grad. norm)   ....   5.000e-05
   Grad. Scal. Fac. for Micro threshold ....   0.100
   Minimum threshold for Micro iter.    ....   1.000e-02
   NR start threshold (gradient norm)   ....   1.000e-04
   Initial trust radius                 ....   0.400
   Minimum AH scaling param. (alpha)    ....   1.000
   Maximum AH scaling param. (alpha)    .... 1000.000
   Quad. conv. algorithm                .... NR
   White noise on init. David. guess    .... on
   Maximum white noise                  ....   0.010
   Pseudo random numbers                .... off
   Inactive MOs                         .... canonical
   Orbital update algorithm             .... Taylor
   Preconditioner                       .... Diag
   Full preconditioner red. dimension   ....   250
 SOSCF                 CNVSOSCF           .... on
   Start iteration     SOSCFMaxIt         ....   150
   Startup grad/error  SOSCFStart         ....  0.003300
   Hessian update      SOSCFHessUp        .... L-BFGS
   Autom. constraints  SOSCFAutoConstrain .... off
 Level Shifting         CNVShift        .... on
   Level shift para.    LevelShift      ....    0.2500
   Turn off err/grad.   ShiftErr        ....    0.0010
 Zerner damping         CNVZerner       .... off
 Static damping         CNVDamp         .... on
   Fraction old density DampFac         ....    0.7000
   Max. Damping (<1)    DampMax         ....    0.9800
   Min. Damping (>=0)   DampMin         ....    0.0000
   Turn off err/grad.   DampErr         ....    0.1000

SCF Procedure:
 Maximum # iterations   MaxIter         ....   125
 SCF integral mode      SCFMode         .... Direct
   Integral package                     .... SHARK and LIBINT hybrid scheme
 Reset frequency        DirectResetFreq ....    20
 Integral Threshold     Thresh          ....  1.000e-10 Eh
 Primitive CutOff       TCut            ....  1.000e-11 Eh

Convergence Tolerance:
 Convergence Check Mode ConvCheckMode   .... Total+1el-Energy
 Convergence forced     ConvForced      .... 1
 Energy Change          TolE            ....  1.000e-06 Eh
 1-El. energy change                    ....  1.000e-03 Eh
 Orbital Gradient       TolG            ....  5.000e-05
 Orbital Rotation angle TolX            ....  5.000e-05
 DIIS Error             TolErr          ....  1.000e-06

------------------------------
INITIAL GUESS: MODEL POTENTIAL
------------------------------
Loading Hartree-Fock densities                     ... done
Calculating cut-offs                               ... done
Initializing the effective Hamiltonian             ... done
Setting up the integral package (SHARK)            ... done
Starting the Coulomb interaction                   ... done (   0.1 sec)
Making the grid                                    ... done (   0.1 sec)
Mapping shells                                     ... done
Starting the XC term evaluation                    ... done (   0.1 sec)
Transforming the Hamiltonian                       ... done (   0.0 sec)
Diagonalizing the Hamiltonian                      ... done (   0.0 sec)
Back transforming the eigenvectors                 ... done (   0.0 sec)
Now organizing SCF variables                       ... done
                      ------------------
                      INITIAL GUESS DONE (   0.3 sec)
                      ------------------
             **** ENERGY FILE WAS UPDATED (1.en.tmp) ****
Finished Guess after   0.3 sec
Maximum memory used throughout the entire GUESS-calculation: 14.1 MB

-------------------------------------------------------------------------------------------
                                      ORCA LEAN-SCF
                              memory conserving SCF solver
-------------------------------------------------------------------------------------------

----------------------------------------D-I-I-S--------------------------------------------
Iteration    Energy (Eh)           Delta-E    RMSDP     MaxDP     DIISErr   Damp  Time(sec)
-------------------------------------------------------------------------------------------
               ***  Starting incremental Fock matrix formation  ***
    1    -550.9553386030272577     0.00e+00  2.47e-03  6.14e-02  2.54e-01  0.700   3.1
    2    -551.1229396034170804    -1.68e-01  1.89e-03  4.45e-02  1.59e-01  0.700   2.9
                               ***Turning on AO-DIIS***
    3    -551.2241285612769843    -1.01e-01  1.17e-03  2.11e-02  9.07e-02  0.700   2.8
    4    -551.2886643853362330    -6.45e-02  2.81e-03  4.55e-02  6.19e-02  0.000   2.8
    5    -551.4327212545415478    -1.44e-01  2.84e-04  5.56e-03  6.22e-03  0.000   2.9
    6    -551.4332216223558589    -5.00e-04  1.24e-04  3.66e-03  3.66e-03  0.000   2.6
                              *** Initializing SOSCF ***
---------------------------------------S-O-S-C-F--------------------------------------
Iteration    Energy (Eh)           Delta-E    RMSDP     MaxDP     MaxGrad    Time(sec)
--------------------------------------------------------------------------------------
    7    -551.4333273884155915    -1.06e-04  6.38e-05  1.71e-03  1.97e-03     2.5
               *** Restarting incremental Fock matrix formation ***
    8    -551.4333585413085075    -3.12e-05  3.09e-05  9.76e-04  6.61e-04     3.1
    9    -551.4333661112352729    -7.57e-06  3.20e-05  9.58e-04  4.08e-04     2.2
   10    -551.4333688781998717    -2.77e-06  6.00e-06  2.73e-04  9.91e-05     2.2
   11    -551.4333690605171796    -1.82e-07  2.29e-06  9.41e-05  4.26e-05     2.0
                 **** Energy Check signals convergence ****

               *****************************************************
               *                     SUCCESS                       *
               *           SCF CONVERGED AFTER  11 CYCLES          *
               *****************************************************

             **** ENERGY FILE WAS UPDATED (1.en.tmp) ****

----------------
TOTAL SCF ENERGY
----------------

Total Energy       :       -551.43336910727407 Eh          -15005.26483 eV

Components:
Nuclear Repulsion  :        693.57678717497720 Eh           18873.18387 eV
Electronic Energy  :      -1245.01015628225127 Eh          -33878.44870 eV
One Electron Energy:      -2127.91213862603172 Eh          -57903.43305 eV
Two Electron Energy:        882.90198234378045 Eh           24024.98435 eV

Virial components:
Potential Energy   :      -1102.45378872950596 Eh          -29999.29273 eV
Kinetic Energy     :        551.02041962223177 Eh           14994.02790 eV
Virial Ratio       :          2.00074942682764

---------------
SCF CONVERGENCE
---------------

  Last Energy change         ...    1.8232e-07  Tolerance :   1.0000e-06
  Last MAX-Density change    ...    9.4113e-05  Tolerance :   1.0000e-05
  Last RMS-Density change    ...    2.2877e-06  Tolerance :   1.0000e-06
  Last DIIS Error            ...    1.9746e-03  Tolerance :   1.0000e-06
  Last Orbital Gradient      ...    4.2628e-05  Tolerance :   5.0000e-05
  Last Orbital Rotation      ...    3.8095e-05  Tolerance :   5.0000e-05


----------------
ORBITAL ENERGIES
----------------

  NO   OCC          E(Eh)            E(eV) 
   0   2.0000     -20.613693      -560.9271 
   1   2.0000     -20.552477      -559.2613 
   2   2.0000     -15.550166      -423.1415 
   3   2.0000     -11.380810      -309.6876 
   4   2.0000     -11.275200      -306.8138 
   5   2.0000     -11.236635      -305.7644 
   6   2.0000     -11.235952      -305.7458 
   7   2.0000     -11.231041      -305.6122 
   8   2.0000     -11.230739      -305.6040 
   9   2.0000     -11.228025      -305.5301 
  10   2.0000     -11.227809      -305.5242 
  11   2.0000     -11.227464      -305.5148 
  12   2.0000      -1.466082       -39.8941 
  13   2.0000      -1.360451       -37.0198 
  14   2.0000      -1.200587       -32.6696 
  15   2.0000      -1.156829       -31.4789 
  16   2.0000      -1.061228       -28.8775 
  17   2.0000      -1.014578       -27.6081 
  18   2.0000      -0.981948       -26.7202 
  19   2.0000      -0.907296       -24.6888 
  20   2.0000      -0.828888       -22.5552 
  21   2.0000      -0.814864       -22.1736 
  22   2.0000      -0.782761       -21.3000 
  23   2.0000      -0.713956       -19.4277 
  24   2.0000      -0.700251       -19.0548 
  25   2.0000      -0.693685       -18.8761 
  26   2.0000      -0.660195       -17.9648 
  27   2.0000      -0.638962       -17.3871 
  28   2.0000      -0.634972       -17.2785 
  29   2.0000      -0.624217       -16.9858 
  30   2.0000      -0.595810       -16.2128 
  31   2.0000      -0.586713       -15.9653 
  32   2.0000      -0.579405       -15.7664 
  33   2.0000      -0.553084       -15.0502 
  34   2.0000      -0.543547       -14.7907 
  35   2.0000      -0.515250       -14.0207 
  36   2.0000      -0.495308       -13.4780 
  37   2.0000      -0.485403       -13.2085 
  38   2.0000      -0.484216       -13.1762 
  39   2.0000      -0.470629       -12.8065 
  40   2.0000      -0.452716       -12.3190 
  41   2.0000      -0.401686       -10.9304 
  42   2.0000      -0.334228        -9.0948 
  43   2.0000      -0.324329        -8.8254 
  44   0.0000       0.141649         3.8545 
  45   0.0000       0.144865         3.9420 
  46   0.0000       0.184104         5.0097 
  47   0.0000       0.225961         6.1487 
  48   0.0000       0.234918         6.3925 
  49   0.0000       0.239447         6.5157 
  50   0.0000       0.262118         7.1326 
  51   0.0000       0.280312         7.6277 
  52   0.0000       0.296376         8.0648 
  53   0.0000       0.319222         8.6865 
  54   0.0000       0.327487         8.9114 
*Only the first 10 virtual orbitals were printed.

                    ********************************
                    * MULLIKEN POPULATION ANALYSIS *
                    ********************************

-----------------------
MULLIKEN ATOMIC CHARGES
-----------------------
   0 C :   -0.154840
   1 C :   -0.144155
   2 C :   -0.147522
   3 H :    0.149376
   4 H :    0.146041
   5 C :   -0.158614
   6 C :   -0.243442
   7 H :    0.148785
   8 C :   -0.010436
   9 H :    0.147768
  10 C :   -0.140637
  11 H :    0.153297
  12 C :   -0.016618
  13 H :    0.139588
  14 H :    0.158732
  15 C :    0.789928
  16 H :    0.369103
  17 N :   -0.685684
  18 O :   -0.623611
  19 H :    0.273036
  20 O :   -0.596593
  21 H :    0.161455
  22 H :    0.285044
Sum of atomic charges:   -0.0000000

--------------------------------
MULLIKEN REDUCED ORBITAL CHARGES
--------------------------------
  0 C s       :     3.145355  s :     3.145355
      pz      :     0.935782  p :     2.964886
      px      :     1.015389
      py      :     1.013716
      dz2     :     0.010969  d :     0.044599
      dxz     :     0.009855
      dyz     :     0.008804
      dx2y2   :     0.005878
      dxy     :     0.009092

  1 C s       :     3.145667  s :     3.145667
      pz      :     1.018910  p :     2.953458
      px      :     0.937302
      py      :     0.997246
      dz2     :     0.008625  d :     0.045030
      dxz     :     0.009573
      dyz     :     0.009516
      dx2y2   :     0.008822
      dxy     :     0.008495

  2 C s       :     3.134830  s :     3.134830
      pz      :     1.017491  p :     2.968319
      px      :     0.938783
      py      :     1.012045
      dz2     :     0.008306  d :     0.044373
      dxz     :     0.009567
      dyz     :     0.009506
      dx2y2   :     0.008696
      dxy     :     0.008299

  3 H s       :     0.836871  s :     0.836871
      pz      :     0.005831  p :     0.013753
      px      :     0.006005
      py      :     0.001917

  4 H s       :     0.840143  s :     0.840143
      pz      :     0.007023  p :     0.013816
      px      :     0.001793
      py      :     0.005000

  5 C s       :     3.135828  s :     3.135828
      pz      :     1.005368  p :     2.978371
      px      :     1.021314
      py      :     0.951689
      dz2     :     0.008499  d :     0.044416
      dxz     :     0.011151
      dyz     :     0.008394
      dx2y2   :     0.008582
      dxy     :     0.007790

  6 C s       :     3.253560  s :     3.253560
      pz      :     1.031170  p :     2.941631
      px      :     0.911645
      py      :     0.998815
      dz2     :     0.009358  d :     0.048251
      dxz     :     0.011999
      dyz     :     0.006696
      dx2y2   :     0.007252
      dxy     :     0.012945

  7 H s       :     0.837471  s :     0.837471
      pz      :     0.007052  p :     0.013743
      px      :     0.001752
      py      :     0.004939

  8 C s       :     3.123774  s :     3.123774
      pz      :     0.937412  p :     2.834948
      px      :     0.960098
      py      :     0.937438
      dz2     :     0.011361  d :     0.051715
      dxz     :     0.011650
      dyz     :     0.010126
      dx2y2   :     0.008688
      dxy     :     0.009890

  9 H s       :     0.838449  s :     0.838449
      pz      :     0.001782  p :     0.013783
      px      :     0.006355
      py      :     0.005646

 10 C s       :     3.144732  s :     3.144732
      pz      :     1.001222  p :     2.950822
      px      :     1.006286
      py      :     0.943314
      dz2     :     0.008700  d :     0.045082
      dxz     :     0.011281
      dyz     :     0.008349
      dx2y2   :     0.008814
      dxy     :     0.007938

 11 H s       :     0.832866  s :     0.832866
      pz      :     0.005902  p :     0.013838
      px      :     0.006001
      py      :     0.001935

 12 C s       :     3.194993  s :     3.194993
      pz      :     1.035432  p :     2.751083
      px      :     0.882205
      py      :     0.833445
      dz2     :     0.011763  d :     0.070542
      dxz     :     0.013777
      dyz     :     0.011372
      dx2y2   :     0.015108
      dxy     :     0.018522

 13 H s       :     0.847849  s :     0.847849
      pz      :     0.007560  p :     0.012562
      px      :     0.003118
      py      :     0.001885

 14 H s       :     0.828610  s :     0.828610
      pz      :     0.002783  p :     0.012658
      px      :     0.002359
      py      :     0.007515

 15 C s       :     2.955771  s :     2.955771
      pz      :     0.673588  p :     2.107565
      px      :     0.684700
      py      :     0.749277
      dz2     :     0.025437  d :     0.146736
      dxz     :     0.019043
      dyz     :     0.031911
      dx2y2   :     0.028219
      dxy     :     0.042127

 16 H s       :     0.589398  s :     0.589398
      pz      :     0.011431  p :     0.041499
      px      :     0.009895
      py      :     0.020173

 17 N s       :     3.606134  s :     3.606134
      pz      :     1.244733  p :     4.045004
      px      :     1.230710
      py      :     1.569561
      dz2     :     0.005376  d :     0.034546
      dxz     :     0.012853
      dyz     :     0.003262
      dx2y2   :     0.003781
      dxy     :     0.009274

 18 O s       :     3.836899  s :     3.836899
      pz      :     1.758016  p :     4.760978
      px      :     1.735352
      py      :     1.267609
      dz2     :     0.002937  d :     0.025735
      dxz     :     0.003883
      dyz     :     0.007432
      dx2y2   :     0.002685
      dxy     :     0.008797

 19 H s       :     0.700857  s :     0.700857
      pz      :     0.010483  p :     0.026107
      px      :     0.009140
      py      :     0.006484

 20 O s       :     3.874729  s :     3.874729
      pz      :     1.435493  p :     4.689303
      px      :     1.416585
      py      :     1.837225
      dz2     :     0.009841  d :     0.032561
      dxz     :     0.008931
      dyz     :     0.002727
      dx2y2   :     0.006884
      dxy     :     0.004178

 21 H s       :     0.826443  s :     0.826443
      pz      :     0.007514  p :     0.012103
      px      :     0.002863
      py      :     0.001726

 22 H s       :     0.688830  s :     0.688830
      pz      :     0.012640  p :     0.026126
      px      :     0.006862
      py      :     0.006624



                     *******************************
                     * LOEWDIN POPULATION ANALYSIS *
                     *******************************

----------------------
LOEWDIN ATOMIC CHARGES
----------------------
   0 C :   -0.080163
   1 C :   -0.069847
   2 C :   -0.077599
   3 H :    0.075712
   4 H :    0.072886
   5 C :   -0.082454
   6 C :   -0.092019
   7 H :    0.075275
   8 C :   -0.022391
   9 H :    0.074842
  10 C :   -0.067164
  11 H :    0.074772
  12 C :   -0.020183
  13 H :    0.073517
  14 H :    0.083152
  15 C :    0.228317
  16 H :    0.200109
  17 N :   -0.276414
  18 O :   -0.199405
  19 H :    0.130305
  20 O :   -0.317004
  21 H :    0.079728
  22 H :    0.136030

-------------------------------
LOEWDIN REDUCED ORBITAL CHARGES
-------------------------------
  0 C s       :     2.885934  s :     2.885934
      pz      :     1.042067  p :     3.100412
      px      :     1.035576
      py      :     1.022770
      dz2     :     0.024056  d :     0.093817
      dxz     :     0.021961
      dyz     :     0.019066
      dx2y2   :     0.011409
      dxy     :     0.017324

  1 C s       :     2.886450  s :     2.886450
      pz      :     1.036158  p :     3.088789
      px      :     1.035781
      py      :     1.016849
      dz2     :     0.017785  d :     0.094608
      dxz     :     0.021078
      dyz     :     0.018488
      dx2y2   :     0.018704
      dxy     :     0.018553

  2 C s       :     2.883451  s :     2.883451
      pz      :     1.036202  p :     3.100172
      px      :     1.036889
      py      :     1.027080
      dz2     :     0.017488  d :     0.093977
      dxz     :     0.021064
      dyz     :     0.018571
      dx2y2   :     0.018495
      dxy     :     0.018359

  3 H s       :     0.883052  s :     0.883052
      pz      :     0.017135  p :     0.041235
      px      :     0.017577
      py      :     0.006523

  4 H s       :     0.885720  s :     0.885720
      pz      :     0.020346  p :     0.041395
      px      :     0.006312
      py      :     0.014737

  5 C s       :     2.884924  s :     2.884924
      pz      :     1.038558  p :     3.103429
      px      :     1.039732
      py      :     1.025139
      dz2     :     0.017895  d :     0.094101
      dxz     :     0.022927
      dyz     :     0.018458
      dx2y2   :     0.017637
      dxy     :     0.017183

  6 C s       :     2.885350  s :     2.885350
      pz      :     1.053911  p :     3.114177
      px      :     1.011723
      py      :     1.048543
      dz2     :     0.017089  d :     0.092492
      dxz     :     0.023425
      dyz     :     0.012187
      dx2y2   :     0.014636
      dxy     :     0.025155

  7 H s       :     0.883496  s :     0.883496
      pz      :     0.020390  p :     0.041229
      px      :     0.006183
      py      :     0.014656

  8 C s       :     2.864890  s :     2.864890
      pz      :     1.041133  p :     3.045813
      px      :     1.011921
      py      :     0.992760
      dz2     :     0.025397  d :     0.111688
      dxz     :     0.025866
      dyz     :     0.021780
      dx2y2   :     0.017991
      dxy     :     0.020654

  9 H s       :     0.883748  s :     0.883748
      pz      :     0.006293  p :     0.041410
      px      :     0.018545
      py      :     0.016572

 10 C s       :     2.886218  s :     2.886218
      pz      :     1.036810  p :     3.086303
      px      :     1.031691
      py      :     1.017802
      dz2     :     0.018250  d :     0.094643
      dxz     :     0.022862
      dyz     :     0.018293
      dx2y2   :     0.018143
      dxy     :     0.017094

 11 H s       :     0.883615  s :     0.883615
      pz      :     0.017413  p :     0.041613
      px      :     0.017624
      py      :     0.006575

 12 C s       :     2.872431  s :     2.872431
      pz      :     1.055335  p :     3.006922
      px      :     0.981254
      py      :     0.970333
      dz2     :     0.021918  d :     0.140831
      dxz     :     0.026037
      dyz     :     0.022691
      dx2y2   :     0.032162
      dxy     :     0.038023

 13 H s       :     0.886554  s :     0.886554
      pz      :     0.022617  p :     0.039929
      px      :     0.010015
      py      :     0.007297

 14 H s       :     0.876324  s :     0.876324
      pz      :     0.009375  p :     0.040525
      px      :     0.008251
      py      :     0.022899

 15 C s       :     2.849056  s :     2.849056
      pz      :     0.810477  p :     2.604634
      px      :     0.861640
      py      :     0.932518
      dz2     :     0.049559  d :     0.317993
      dxz     :     0.044548
      dyz     :     0.070520
      dx2y2   :     0.058769
      dxy     :     0.094597

 16 H s       :     0.679809  s :     0.679809
      pz      :     0.034754  p :     0.120082
      px      :     0.030857
      py      :     0.054471

 17 N s       :     3.187807  s :     3.187807
      pz      :     1.225628  p :     4.027408
      px      :     1.244281
      py      :     1.557500
      dz2     :     0.009564  d :     0.061199
      dxz     :     0.022303
      dyz     :     0.005823
      dx2y2   :     0.007563
      dxy     :     0.015945

 18 O s       :     3.458137  s :     3.458137
      pz      :     1.719372  p :     4.692445
      px      :     1.707125
      py      :     1.265948
      dz2     :     0.005178  d :     0.048824
      dxz     :     0.004883
      dyz     :     0.013011
      dx2y2   :     0.010041
      dxy     :     0.015710

 19 H s       :     0.788268  s :     0.788268
      pz      :     0.030322  p :     0.081427
      px      :     0.028553
      py      :     0.022551

 20 O s       :     3.547634  s :     3.547634
      pz      :     1.459437  p :     4.712281
      px      :     1.459468
      py      :     1.793376
      dz2     :     0.010939  d :     0.057089
      dxz     :     0.020954
      dyz     :     0.005381
      dx2y2   :     0.011666
      dxy     :     0.008150

 21 H s       :     0.880289  s :     0.880289
      pz      :     0.023379  p :     0.039984
      px      :     0.010515
      py      :     0.006090

 22 H s       :     0.781857  s :     0.781857
      pz      :     0.038494  p :     0.082113
      px      :     0.021646
      py      :     0.021973



                      *****************************
                      * MAYER POPULATION ANALYSIS *
                      *****************************

  NA   - Mulliken gross atomic population
  ZA   - Total nuclear charge
  QA   - Mulliken gross atomic charge
  VA   - Mayer's total valence
  BVA  - Mayer's bonded valence
  FA   - Mayer's free valence

  ATOM       NA         ZA         QA         VA         BVA        FA
  0 C      6.1548     6.0000    -0.1548     3.9272     3.9272     0.0000
  1 C      6.1442     6.0000    -0.1442     3.9265     3.9265    -0.0000
  2 C      6.1475     6.0000    -0.1475     3.9296     3.9296    -0.0000
  3 H      0.8506     1.0000     0.1494     0.9533     0.9533     0.0000
  4 H      0.8540     1.0000     0.1460     0.9548     0.9548    -0.0000
  5 C      6.1586     6.0000    -0.1586     3.9331     3.9331    -0.0000
  6 C      6.2434     6.0000    -0.2434     3.8052     3.8052     0.0000
  7 H      0.8512     1.0000     0.1488     0.9536     0.9536    -0.0000
  8 C      6.0104     6.0000    -0.0104     3.8676     3.8676    -0.0000
  9 H      0.8522     1.0000     0.1478     0.9540     0.9540     0.0000
 10 C      6.1406     6.0000    -0.1406     3.9280     3.9280     0.0000
 11 H      0.8467     1.0000     0.1533     0.9548     0.9548    -0.0000
 12 C      6.0166     6.0000    -0.0166     3.7437     3.7437    -0.0000
 13 H      0.8604     1.0000     0.1396     0.9517     0.9517    -0.0000
 14 H      0.8413     1.0000     0.1587     0.9487     0.9487    -0.0000
 15 C      5.2101     6.0000     0.7899     3.6697     3.6697     0.0000
 16 H      0.6309     1.0000     0.3691     0.8744     0.8744     0.0000
 17 N      7.6857     7.0000    -0.6857     2.7703     2.7703    -0.0000
 18 O      8.6236     8.0000    -0.6236     1.8392     1.8392    -0.0000
 19 H      0.7270     1.0000     0.2730     0.9046     0.9046     0.0000
 20 O      8.5966     8.0000    -0.5966     1.8864     1.8864     0.0000
 21 H      0.8385     1.0000     0.1615     0.9430     0.9430    -0.0000
 22 H      0.7150     1.0000     0.2850     0.9055     0.9055     0.0000

  Mayer bond orders larger than 0.100000
B(  0-C ,  1-C ) :   1.4542 B(  0-C ,  9-H ) :   0.9623 B(  0-C , 10-C ) :   1.4455 
B(  1-C ,  5-C ) :   1.4456 B(  1-C ,  7-H ) :   0.9618 B(  2-C ,  4-H ) :   0.9595 
B(  2-C ,  8-C ) :   1.4410 B(  2-C , 10-C ) :   1.4553 B(  3-H , 10-C ) :   0.9614 
B(  5-C ,  8-C ) :   1.4462 B(  5-C , 11-H ) :   0.9569 B(  6-C ,  8-C ) :   0.9679 
B(  6-C , 12-C ) :   0.9537 B(  6-C , 13-H ) :   0.9699 B(  6-C , 14-H ) :   0.9665 
B( 12-C , 15-C ) :   0.9001 B( 12-C , 17-N ) :   0.9923 B( 12-C , 21-H ) :   0.9570 
B( 15-C , 18-O ) :   0.9795 B( 15-C , 20-O ) :   1.8201 B( 16-H , 18-O ) :   0.8410 
B( 17-N , 19-H ) :   0.9098 B( 17-N , 22-H ) :   0.8963 

-------
TIMINGS
-------

Total SCF time: 0 days 0 hours 0 min 30 sec 

Total time                  ....      30.715 sec
Sum of individual times     ....      28.936 sec  ( 94.2%)

SCF preparation             ....       0.017 sec  (  0.1%)
Fock matrix formation       ....      28.840 sec  ( 93.9%)
  Startup                   ....       0.001 sec  (  0.0% of F)
  Coulomb+Exchange Fock     ....      30.608 sec  (106.1% of F)
Diagonalization             ....       0.000 sec  (  0.0%)
Density matrix formation    ....       0.005 sec  (  0.0%)
Total Energy calculation    ....       0.001 sec  (  0.0%)
Population analysis         ....       0.004 sec  (  0.0%)
Orbital Transformation      ....       0.008 sec  (  0.0%)
Orbital Orthonormalization  ....       0.000 sec  (  0.0%)
DIIS solution               ....       0.043 sec  (  0.1%)
SOSCF solution              ....       0.015 sec  (  0.0%)
Finished LeanSCF after  30.7 sec

Maximum memory used throughout the entire LEANSCF-calculation: 17.7 MB

------------------------------------------------------------------------------
                                ORCA  MP2 
------------------------------------------------------------------------------

Freezing NCore=24 chemical core electrons

----------
MP2 ENERGY (disk based algorithm)
----------

Dimension of the basis                      ...  223
Memory devoted to MP2                       ... 4096 MB   
Data format for buffers                     ... DOUBLE
Compression type for matrix containers      ... UNCOMPRESSED

-------------------------
SHARK HALF TRANSFORMATION (Exchange order)
-------------------------

Number of basis functions                   ...    223
Number of operators                         ...      1
   Operator  0:   12-  43 (p-index in (p*|q*))
   Operator  0:   12-  43 (q-index in (p*|q*)
Integral generator used                     ... SHARK
Contraction scheme used                     ... SEGMENTED CONTRACTION
MaxCore in resort                           ...   4096 MB

Half transformed integrals for op=   0      ... 1.SHARK_MNPQ0.tmp
Resorted half transformed integrals         ... 1.KAO_aa.tmp

Half trafo (segmented) done. Total time = 19.5 sec. integrals= 17.3 sec trafo=  1.9 sec

----------------------
SHARK INTEGRAL SORTING (Exchange)
----------------------

Input container                             ... 1.SHARK_MNPQ0.tmp
Output container                            ... 1.KAO_aa.tmp
Range of AO-indices                         ...    0 -  222
Range of bra indices i                      ...   12 -   43
Range of ket indices j                      ...   12 -   43
Symmetric i,j range                         ... YES
Number of (i,j) pairs generated             ...  528
Max Core memory in MB                       ...   4096

Available core memory in MB                 ...   4083.53
MB needed for one item                      ...      0.38
Fixed MB needed                             ...      0.00
Number of items                             ...       528
Number of batches                           ...         1
Items treated per batch                     ...       528
Batch   0                                   ...      0-   527 (   528)
   => Closing output file and leaving
done (  0.2 sec)

SHARK half integral transformation done. Total time = 19.7 sec.


Finished integral transformation - now doing MP2 part

OPERATOR COMBINATION   0   0: ij=( 12.. 43, 12.. 43)
  Internal MO  14
  Internal MO  17
  Internal MO  20
  Internal MO  23
  Internal MO  26
  Internal MO  29
  Internal MO  32
  Internal MO  35
  Internal MO  38
  Internal MO  41
-----------------------------------------------
 MP2 CORRELATION ENERGY   :     -1.708558524 Eh
-----------------------------------------------


-------
TIMINGS
-------
Total time                :   20.055 sec
Integral trafo            :   19.734 sec ( 98.4%)
K(i,j)                    :    0.273 sec (  1.4%)
T(i,j)                    :    0.007 sec (  0.0%)

---------------------------------------
MP2 TOTAL ENERGY:     -553.141927631 Eh
---------------------------------------

Maximum memory used throughout the entire MP2-calculation: 214.3 MB

-------------------------   --------------------
FINAL SINGLE POINT ENERGY      -553.141927631094
-------------------------   --------------------


------------------------------------------------------------------------------
                              ORCA PROPERTY CALCULATIONS
------------------------------------------------------------------------------

GBWName                                 ... 1.gbw
Number of atoms                         ...     23
Number of basis functions               ...    223
Max core memory                         ...   4096 MB

Electric properties:
Dipole moment                           ... YES
Quadrupole moment                       ...  NO
Static polarizability (Dipole/Dipole)   ...  NO
Static polarizability (Dipole/Quad.)    ...  NO
Static polarizability (Quad./Quad.)     ...  NO
Static polarizability (Velocity)        ...  NO
Static hyperpolarizability              ...  NO

Atomic electric properties:
Dipole moment                           ...  NO
Quadrupole moment                       ...  NO
Static polarizability                   ...  NO

Choice of electric origin               ... Center of mass
Position of electric origin             ...    -6.384330     2.690753     0.284707

General magnetic properties:
Magnetizability                         ...  NO

EPR properties:
g-Tensor (aka g-matrix)                 ...  NO
Zero-Field splitting spin-orbit         ...  NO
Zero-field splitting spin-spin          ...  NO
Hyperfine couplings                     ...  NO (   0 nuclei)
Quadrupole couplings                    ...  NO (   0 nuclei)
Contact density                         ...  NO (   0 nuclei)

NMR properties:
Chemical shifts                         ...  NO (   0 nuclei)
Spin-rotation constants                 ...  NO (   0 nuclei)
Spin-spin couplings                     ...  NO (   0 nuclei,    0 pairs)

Choice of magnetic origin               ... GIAO
Position of magnetic origin             ...     0.000000     0.000000     0.000000

Properties with geometric perturbations:
SCF Hessian                             ...  NO
IR spectrum                             ...  NO
VCD spectrum                            ...  NO
X-ray spectroscopy properties:
SCF XES/XAS/RIXS spectra                ...  NO

SCF SOC stabilization energy            ...  NO
Diagonal Born-Oppenheimer correction    ...  NO

-------------
DIPOLE MOMENT
-------------

Method             : SCF
Type of density    : Electron Density
Multiplicity       :   1
Irrep              :   0
Energy             :  -551.4333691072740748 Eh
Basis              : AO
                                X                 Y                 Z
Electronic contribution:      1.835290538      -3.180133620      -0.553514228
Nuclear contribution   :     -2.167159440       2.690716003       0.820704503
                        -----------------------------------------
Total Dipole Moment    :     -0.331868902      -0.489417618       0.267190274
                        -----------------------------------------
Magnitude (a.u.)       :      0.648889216
Magnitude (Debye)      :      1.649345313



--------------------
Rotational spectrum 
--------------------
 
Rotational constants in cm-1:             0.060879             0.021032             0.018560 
Rotational constants in MHz :          1825.092267           630.510913           556.410371 

Dipole components along the rotational axes: 
x,y,z [a.u.] :    -0.400849     0.191839     0.472837 
x,y,z [Debye]:    -1.018877     0.487616     1.201857 

 

Dipole moment calculation done in   0.0 sec 

Maximum memory used throughout the entire PROP-calculation: 12.7 MB

--------------------------------
SUGGESTED CITATIONS FOR THIS RUN
--------------------------------

Below you find a list of papers that are relevant to this ORCA run
We neither can nor want to force you to cite these papers, but we appreciate if you do
You receive ORCA, which is the product of decades of hard work by many enthusiastic individuals, for free
The only thing we kindly ask in return is that you cite our papers,
We deeply appreciate it, if you show your appreciation for ORCA by not just citing the generic ORCA reference.

Please note that relegating all ORCA citations to the supporting information does *not* help us.
SI sections are not indexed - citations you put there will not count into any citation statistics
But we need these citations in order to attract the funding resources that allow us to do what we are doing

Therefore, if you are a happy ORCA user, please consider citing a few of the papers listed below in the main body of your paper

In addition to the list printed below, the program has created the file 1.bibtex that contains the list in bibtex format
You can import this file easily into all common literature databanks and citation aid programs


List of essential papers. We consider these as the minimum necessary citations

  1. Neese, F.
     Software update: the ORCA program system, version 6.0
     WIRES Comput. Molec. Sci. 2025 15(1), e70019
     doi.org/10.1002/wcms.7019

List of papers to cite with high priority. The work reported in these papers was absolutely
necessary for this run to complete.
Our perspective: the developers of density functionals and basis sets usually get cited in chemistry papers
Good! But without the algorithms to do something with them, the functionals or basis sets would not do anything.
Hence, in our opinion, the algorithm design and method developments papers are equally worthy of getting cited

  1. Neese, F.
     The SHARK Integral Generation and Digestion System
     J. Comp. Chem. 2022 44(3), 381
     doi.org/10.1002/jcc.26942

List of suggested additional citations. These are papers that are important in the 'surrounding' of 
of this run, or papers that preceded the highly important papers. If you like your results we are grateful for a citation.

  1. Neese, F.
     The ORCA program system
     WIRES Comput. Molec. Sci. 2012 2(1), 73-78
     doi.org/10.1002/wcms.81
  2. Neese, F.
     Software update: the ORCA program system, version 4.0
     WIRES Comput. Molec. Sci. 2018 8(1), 1-6
     doi.org/10.1002/wcms.1327
  3. Neese, F.; Wennmohs, F.; Becker, U.; Riplinger, C.
     The ORCA quantum chemistry program package
     J. Chem. Phys. 2020 152(22), 224108
     doi.org/10.1063/5.0004608
  4. Neese, F.
     Software update: The ORCA program system—Version 5.0
     WIRES Comput. Molec. Sci. 2022 12(1), e1606
     doi.org/10.1002/wcms.1606

List of optional additional citations

  1. Neese, F.
     Approximate second-order SCF convergence for spin unrestricted wavefunctions
     Chem. Phys. Lett. 2000 325(1-3), 93-98
     doi.org/10.1016/s0009-2614(00)00662-x

Timings for individual modules:

Sum of individual times          ...       51.725 sec (=   0.862 min)
Startup calculation              ...        0.559 sec (=   0.009 min)   1.1 %
SCF iterations                   ...       31.058 sec (=   0.518 min)  60.0 %
Property calculations            ...        0.026 sec (=   0.000 min)   0.1 %
MP2 module                       ...       20.081 sec (=   0.335 min)  38.8 %
                             ****ORCA TERMINATED NORMALLY****
TOTAL RUN TIME: 0 days 0 hours 0 minutes 51 seconds 762 msec
