
                                 *****************
                                 * O   R   C   A *
                                 *****************

                                            #,                                       
                                            ###                                      
                                            ####                                     
                                            #####                                    
                                            ######                                   
                                           ########,                                 
                                     ,,################,,,,,                         
                               ,,#################################,,                 
                          ,,##########################################,,             
                       ,#########################################, ''#####,          
                    ,#############################################,,   '####,        
                  ,##################################################,,,,####,       
                ,###########''''           ''''###############################       
              ,#####''   ,,,,##########,,,,          '''####'''          '####       
            ,##' ,,,,###########################,,,                        '##       
           ' ,,###''''                  '''############,,,                           
         ,,##''                                '''############,,,,        ,,,,,,###''
      ,#''                                            '''#######################'''  
     '                                                          ''''####''''         
             ,#######,   #######,   ,#######,      ##                                
            ,#'     '#,  ##    ##  ,#'     '#,    #''#        ,####,    ,#,          
            ##       ##  ##   ,#'  ##            #'  '#       #'       ,# #          
            ##       ##  #######   ##           ,######,      #####,      #          
            '#,     ,#'  ##    ##  '#,     ,#' ,#      #,     #,   #      #          
             '#######'   ##     ##  '#######'  #'      '#     '####' #    #          



                #########################################################
                #                        -***-                          #
                #          Department of theory and spectroscopy        #
                #                                                       #
                #                      Frank Neese                      #
                #                                                       #
                #     Directorship, Architecture, Infrastructure        #
                #                    SHARK, DRIVERS                     #
                #        Core code/Algorithms in most modules           #
                #                                                       #
                #        Max Planck Institute fuer Kohlenforschung      #
                #                Kaiser Wilhelm Platz 1                 #
                #                 D-45470 Muelheim/Ruhr                 #
                #                      Germany                          #
                #                                                       #
                #                  All rights reserved                  #
                #                        -***-                          #
                #########################################################


                         Program Version 6.1.0  -  RELEASE   -
                                (GIT: $679e74b$)
                          ($2025-06-10 18:02:51 +0200$)


 With contributions from (in alphabetic order):
[Max-Planck-Institut fuer Kohlenforschung]                               
  Daniel Aravena         : Magnetic Suceptibility                        
  Michael Atanasov       : Ab Initio Ligand Field Theory (pilot matlab implementation)
  Alexander A. Auer      : GIAO ZORA, VPT2 properties, NMR spectrum      
  Ute Becker             : All parallelization in ORCA, NUMFREQ, NUMCALC 
  Giovanni Bistoni       : ED, misc. LED, open-shell LED, HFLD           
  Dmytro Bykov           : pre 5.0 version of the SCF Hessian            
  Marcos Casanova-Páez   : Triplet and SCS-CIS(D). UHF-(DLPNO)-IP/EA/STEOM-CCSD. UHF-CVS-IP/STEOM-CCSD   
  Vijay G. Chilkuri      : MRCI spin determinant printing, contributions to CSF-ICE 
  Pauline Colinet        : FMM embedding                                 
  Dipayan Datta          : RHF DLPNO-CCSD density                        
  Achintya Kumar Dutta   : EOM-CC, STEOM-CC                              
  Nicolas Foglia         : Exact transition moments, OPA infrastructure, MCD improvements    
  Dmitry Ganyushin       : Spin-Orbit,Spin-Spin,Magnetic field MRCI      
  Miquel Garcia-Rates    : C-PCM and meta-GGA Hessian, CCSD/C-PCM, Gaussian charge scheme 
  Tiago L. C. Gouveia    : GS-ROHF, GS-ROCIS                             
  Yang Guo               : DLPNO-NEVPT2, F12-NEVPT2, CIM, IAO-localization        
  Andreas Hansen         : Spin unrestricted coupled pair/coupled cluster methods 
  Ingolf Harden          : AUTO-CI MPn and infrastructure                
  Benjamin Helmich-Paris : MC-RPA, TRAH-(SCF,CASSCF), AVAS, COSX integrals, SCF dyn. polar., MC-PDFT, srDFT 
  Lee Huntington         : MR-EOM, pCC                                   
  Robert Izsak           : Overlap fitted RIJCOSX, COSX-SCS-MP3, EOM     
  Riya Kayal             : Wick's Theorem for AUTO-CI, AUTO-CI UHF-CCSDT 
  Emily Kempfer          : AUTO-CI RHF CISDT and CCSDT, approximate NEVPT4
  Christian Kollmar      : KDIIS, OOCD, Brueckner-CCSD(T), CCSD density, CASPT2, CASPT2-K, improved NEVPT2 
  Axel Koslowski         : Symmetry handling                             
  Simone Kossmann        : meta-GGA functionals, TD-DFT gradient, OOMP2, (MP2 Hessian; deprecated post 5.0) 
  Lucas Lang             : DCDCAS, Hyperfine gauge corrections, ICE-SOC+SSC
  Marvin Lechner         : AUTO-CI (C++ implementation), FIC-MRCC        
  Spencer Leger          : CASSCF response                               
  Dagmar Lenk            : GEPOL surface, SMD, ORCA-2-JSON               
  Dimitrios Liakos       : Extrapolation schemes; Compound Job, Property file
  Dimitrios Manganas     : Further ROCIS development; embedding schemes. LFT, Crystal Embedding 
  Dimitrios Pantazis     : SARC Basis sets                               
  Anastasios Papadopoulos: AUTO-CI, single reference methods and gradients 
  Taras Petrenko         : pre 6.0 DFT Hessian and TD-DFT gradient,  ECA, NRVS 
  Petra Pikulova         : Analytic Raman intensities                    
  Peter Pinski           : DLPNO-MP2, DLPNO-MP2 Gradient                 
  Shashank Vittal Rao    : ES-AILFT, MagRelax                            
  Christoph Reimann      : Effective Core Potentials                     
  Marius Retegan         : Local ZFS, SOC                                
  Christoph Riplinger    : Optimizer, TS searches, QM/MM, DLPNO-CCSD(T), (RO)-DLPNO pert. Triples 
  Michael Roemelt        : Original ROCIS implementation, recursive CI coupling coefficients
  Masaaki Saitow         : Open-shell DLPNO-CCSD energy and density      
  Barbara Sandhoefer     : DKH picture change effects                    
  Yorick L. A. Schmerwitz: GMF and freeze-and-release deltaSCF, NEB S-IDPP initial path                    
  Kantharuban Sivalingam : CASSCF convergence/infrastructure, NEVPT2, NEVPT3, NEVPT4(SD), FIC-MRCI and CEPA variants
  Bernardo de Souza      : ESD, SOC TD-DFT                               
  Georgi L. Stoychev     : AutoAux, RI-MP2 NMR, DLPNO-MP2 response, X2C  
  Van Anh Tran           : RI-MP2 g-tensors                              
  Willem Van den Heuvel  : Paramagnetic NMR                              
  Zikuan Wang            : NOTCH, Electric field optimization            
  Frank Wennmohs         : Technical directorship and infrastructure     
  Hang Xu                : AUTO-CI-Response properties                   
                                                                         
[FACCTs GmbH]                                                            
  Markus Bursch, Nicolas Foglia, Miquel Garcia-Rates, Ingolf Harden, Hagen Neugebauer, Anastasios Papadopoulos, 
  Christoph Riplinger, Bernardo de Souza, Georgi L. Stoychev                                                    
                                                                 
  APM, various basis sets, CI-OPT, improved COSX, DLPNO-Multilevel,           
  DOCKER, DRACO, updates on ESD, Fragmentator, GOAT, IRC, LR-CPCM, L-BFGS, MBIS, meta-GGA TD-DFT gradient, ML-optimized integration grids, 
  MM, NACMEs, nearIR, NEB, NEB-TS, NL-DFT gradient (VV10), 2- and 3-layer-ONIOM, interface openCOSMO-RS, QMMM,   
  Crystal-QMMM, RESP, rigid body optimization, SF, symmetry and pop. for TD-DFT, various functionals, SOLVATOR                                   
                                                                         
[Other institutions]                                                     
  V. Asgeirsson          : NEB                                           
  Christoph Bannwarth    : sTDA-DFT, sTD-DFT, PBEh-3c, B97-3c, D3        
  Giovanni Bistoni       : ETS/NOCV, ADLD/ADEX, COVALED                  
  Martin Brehm           : Molecular dynamics                            
  Ronald Cardenas        : ETS/NOCV                                      
  Martina Colucci        : COVALED                                       
  Sebastian Ehlert       : rSCAN, r2SCAN, r2SCAN-3c, D4, dhf basis sets  
  Marvin Friede          : D4 for Fr, Ra, Ac-Lr                          
  Lars Goerigk           : TD-DFT with DH, B97 family of functionals     
  Stefan Grimme          : VdW corrections, initial TS optimization, DFT functionals, gCP, sTDA/sTD-DF 
  Waldemar Hujo          : DFT-NL                                        
  H. Jonsson             : NEB                                           
  Holger Kruse           : gCP                                           
  Marcel Mueller         : wB97X-3c, vDZP basis set                      
  Hagen Neugebauer       : wr2SCAN, Native XTB                           
  Gianluca Regni         : ADLD/ADEX                                     
  Tobias Risthaus        : pre 6.0 range-separated hybrid DFT and stability analysis
  Lukas Wittmann         : regularized MP2, r2SCAN double-hybrids, wr2SCAN        
                                                                         
We gratefully acknowledge several colleagues who have allowed us to      
interface, adapt or use parts of their codes:                            
  Ed Valeev, F. Pavosevic, A. Kumar             : LibInt (2-el integral package), F12 methods 
  Garnet Chan, S. Sharma, J. Yang, R. Olivares  : DMRG                   
  Ulf Ekstrom                                   : XCFun DFT Library      
  Mihaly Kallay                                 : mrcc  (arbitrary order and MRCC methods)
  Frank Weinhold                                : gennbo (NPA and NBO analysis)           
  Simon Mueller                                 : openCOSMO-RS                            
  Christopher J. Cramer and Donald G. Truhlar   : smd solvation model                     
  S Lehtola, MJT Oliveira, MAL Marques          : LibXC Library                           
  Liviu Ungur et al                             : ANISO software                          


 Your calculation uses the libint2 library for the computation of 2-el integrals
 For citations please refer to: http://libint.valeyev.net

 Your ORCA version has been built with support for libXC version: 7.0.0
 For citations please refer to: https://libxc.gitlab.io

 This ORCA versions uses:
   CBLAS   interface :  Fast vector & matrix operations
   LAPACKE interface :  Fast linear algebra routines
   SCALAPACK package :  Parallel linear algebra routines
   Shared memory     :  Shared parallel matrices
   BLAS/LAPACK       :  OpenBLAS 0.3.29  USE64BITINT DYNAMIC_ARCH NO_AFFINITY Haswell SINGLE_THREADED
        Core in use  :  Haswell
   Copyright (c) 2011-2014, The OpenBLAS Project


  ***********************************
  * Starting time: Mon Sep  1 16:40:52 2025
  * Host name:     chemlab03
  * Process ID:    110245
  * Working dir.:  /home/vivek/mm-project/vivek/xtb-goat/MP2-opt/g/4
  ***********************************



***************************************
The coordinates will be read from file: /home/vivek/mm-project/vivek/xtb-goat/xtb-goat/g/G_CONF/4.xyz
***************************************


================================================================================

----- Orbital basis set information -----
Your calculation utilizes the basis: 6-31G**
   H-He, Li-Ne : W. J. Hehre, R. Ditchfield and J.A. Pople, J. Chem. Phys. 56, 2257 (1972).
                 Note: He and Ne are unpublished basis sets taken from the Gaussian program.
                 Note: Li and B from J. D. Dill and J. A. Pople, J. Chem. Phys. 62, 2921 (1975).
   Na - Ar     : M. M. Francl, W. J. Pietro, W. J. Hehre, J. S. Binkley, M. S. Gordon, 
                 D. J. DeFrees and J. A. Pople, J. Chem. Phys. 77, 3654 (1982).
   K - Zn      : V. A. Rassolov, J. A. Pople, M. A. Ratner, and T. L. Windus, J. Chem. Phys. 109, 1223 (1998).

================================================================================
                                        WARNINGS
                       Please study these warnings very carefully!
================================================================================

WARNING: Old DensityContainer found on disk!
         Will remove this file - 
         If you want to keep old densities, please start your calculation with a different basename. 


WARNING: The frozen-core approximation for MP2-gradient calculations is turned on by default.

WARNING: Geometry Optimization
  ===> : Switching off AutoStart
         For restart on a previous wavefunction, please use MOREAD

WARNING: Post HF methods need fully converged wavefunctions
  ===> : Setting SCFConvForced true
         You can overwrite this default with %scf ConvForced false 


================================================================================
                                       INPUT FILE
================================================================================
NAME = 4.inp
|  1> ! MP2 6-31G** opt
|  2> 
|  3> * xyzfile 0 1 /home/vivek/mm-project/vivek/xtb-goat/xtb-goat/g/G_CONF/4.xyz
|  4> 
|  5>                          ****END OF INPUT****
================================================================================

                       *****************************
                       * Geometry Optimization Run *
                       *****************************

Geometry optimization settings:
Update method            Update   .... BFGS
Choice of coordinates    CoordSys .... (2022) Redundant Internals
Initial Hessian          InHess   .... Almloef's Model
Max. no of cycles        MaxIter  .... 50

Convergence Tolerances:
Energy Change            TolE     ....  5.0000e-06 Eh
Max. Gradient            TolMAXG  ....  3.0000e-04 Eh/bohr
RMS Gradient             TolRMSG  ....  1.0000e-04 Eh/bohr
Max. Displacement        TolMAXD  ....  4.0000e-03 bohr
RMS Displacement         TolRMSD  ....  2.0000e-03 bohr
Strict Convergence                .... False

------------------------------------------------------------------------------
                        ORCA OPTIMIZATION COORDINATE SETUP
------------------------------------------------------------------------------

The optimization will be done in redundant internal coordinates (2022)
Making redundant internal coordinates   ...  (2022 redundants) done
Evaluating the initial hessian          ...  (Almloef) done
Evaluating the coordinates              ...  done
Calculating the B-matrix                .... done
Calculating the G-matrix                .... done
The number of degrees of freedom        ....   35

    -----------------------------------------------------------------
                    Redundant Internal Coordinates


    -----------------------------------------------------------------
         Definition                    Initial Value    Approx d2E/dq
    -----------------------------------------------------------------
      1. B(C   1,C   0)                  1.5139         0.396321   
      2. B(N   4,H   3)                  1.0138         0.426739   
      3. B(N   4,C   0)                  1.4485         0.451451   
      4. B(N   4,H   2)                  1.0133         0.427422   
      5. B(O   5,C   1)                  1.3373         0.679241   
      6. B(O   5,H   3)                  2.3385         0.010000   
      7. B(H   6,C   0)                  1.0934         0.355650   
      8. B(H   7,C   0)                  1.1073         0.337952   
      9. B(H   8,O   5)                  0.9701         0.500926   
     10. B(O   9,C   1)                  1.2008         1.121295   
     11. A(N   4,C   0,H   7)          114.2410         0.329127   
     12. A(C   1,C   0,H   7)          105.1816         0.324086   
     13. A(C   1,C   0,N   4)          112.4040         0.376833   
     14. A(H   6,C   0,H   7)          107.4691         0.287401   
     15. A(C   1,C   0,H   6)          108.0069         0.326818   
     16. A(N   4,C   0,H   6)          109.2313         0.331917   
     17. A(C   0,C   1,O   9)          124.5553         0.442646   
     18. A(C   0,C   1,O   5)          112.8374         0.404716   
     19. A(O   5,C   1,O   9)          122.5461         0.485222   
     20. A(C   0,N   4,H   3)          110.4396         0.339196   
     21. A(C   0,N   4,H   2)          110.4102         0.339286   
     22. A(H   2,N   4,H   3)          108.5619         0.301991   
     23. A(C   1,O   5,H   8)          110.0831         0.373571   
     24. D(O   5,C   1,C   0,N   4)     31.7502         0.011667   
     25. D(O   9,C   1,C   0,N   4)   -151.0397         0.011667   
     26. D(O   9,C   1,C   0,H   6)    -30.4673         0.011667   
     27. D(O   5,C   1,C   0,H   6)    152.3226         0.011667   
     28. D(O   5,C   1,C   0,H   7)    -93.1410         0.011667   
     29. D(H   2,N   4,C   0,H   6)     68.0196         0.017388   
     30. D(H   2,N   4,C   0,C   1)   -172.1162         0.017388   
     31. D(H   3,N   4,C   0,H   6)   -171.9044         0.017388   
     32. D(H   3,N   4,C   0,C   1)    -52.0402         0.017388   
     33. D(H   2,N   4,C   0,H   7)    -52.3620         0.017388   
     34. D(H   8,O   5,C   1,O   9)      2.4369         0.037955   
     35. D(H   8,O   5,C   1,C   0)    179.7112         0.037955   
    -----------------------------------------------------------------

Number of atoms                         .... 10
Number of degrees of freedom            .... 35


         *************************************************************
         *                GEOMETRY OPTIMIZATION CYCLE   1            *
         *************************************************************
---------------------------------
CARTESIAN COORDINATES (ANGSTROEM)
---------------------------------
  C     -4.926772   -1.269974   -0.160589
  C     -4.390950   -2.446882    0.626626
  H     -5.918950    0.482922    0.142048
  H     -6.122126   -0.612994    1.352980
  N     -5.453846   -0.227198    0.695472
  O     -5.051718   -2.649616    1.771415
  H     -4.107971   -0.863762   -0.760627
  H     -5.668527   -1.702367   -0.859804
  H     -4.679734   -3.413310    2.240019
  O     -3.503694   -3.166507    0.256688

----------------------------
CARTESIAN COORDINATES (A.U.)
----------------------------
  NO LB      ZA    FRAG     MASS         X           Y           Z
   0 C     6.0000    0    12.011   -9.310251   -2.399902   -0.303469
   1 C     6.0000    0    12.011   -8.297693   -4.623936    1.184152
   2 H     1.0000    0     1.008  -11.185194    0.912591    0.268432
   3 H     1.0000    0     1.008  -11.569141   -1.158390    2.556762
   4 N     7.0000    0    14.007  -10.306276   -0.429341    1.314252
   5 O     8.0000    0    15.999   -9.546363   -5.007048    3.347489
   6 H     1.0000    0     1.008   -7.762940   -1.632273   -1.437377
   7 H     1.0000    0     1.008  -10.711964   -3.217007   -1.624795
   8 H     1.0000    0     1.008   -8.843416   -6.450220    4.233022
   9 O     8.0000    0    15.999   -6.621021   -5.983830    0.485069

--------------------------------
INTERNAL COORDINATES (ANGSTROEM)
--------------------------------
 C      0   0   0     0.000000000000     0.00000000     0.00000000
 C      1   0   0     1.513910728489     0.00000000     0.00000000
 H      1   2   0     2.036823252426   139.83370475     0.00000000
 H      3   1   2     1.645803396808    66.19629926   338.25054573
 N      3   1   2     1.013346041480    41.79677347    11.33842708
 O      2   1   3     1.337256765153   112.83744760    26.05957271
 H      1   2   3     1.093384552179   108.00689452   126.26303628
 H      1   2   3     1.107279003563   105.18164611   240.79938553
 H      6   2   1     0.970149471144   110.08313498   179.71121385
 O      2   1   3     1.200807575365   124.55525398   203.26971285

---------------------------
INTERNAL COORDINATES (A.U.)
---------------------------
 C      0   0   0     0.000000000000     0.00000000     0.00000000
 C      1   0   0     2.860876668050     0.00000000     0.00000000
 H      1   2   0     3.849038130288   139.83370475     0.00000000
 H      3   1   2     3.110117690244    66.19629926   338.25054573
 N      3   1   2     1.914946497291    41.79677347    11.33842708
 O      2   1   3     2.527049056873   112.83744760    26.05957271
 H      1   2   3     2.066197362679   108.00689452   126.26303628
 H      1   2   3     2.092454070576   105.18164611   240.79938553
 H      6   2   1     1.833316809431   110.08313498   179.71121385
 O      2   1   3     2.269197456977   124.55525398   203.26971285

---------------------
BASIS SET INFORMATION
---------------------
There are 4 groups of distinct atoms

 Group   1 Type C   : 10s4p1d contracted to 3s2p1d pattern {631/31/1}
 Group   2 Type H   : 4s1p contracted to 2s1p pattern {31/1}
 Group   3 Type N   : 10s4p1d contracted to 3s2p1d pattern {631/31/1}
 Group   4 Type O   : 10s4p1d contracted to 3s2p1d pattern {631/31/1}

Atom   0C    basis set group =>   1
Atom   1C    basis set group =>   1
Atom   2H    basis set group =>   2
Atom   3H    basis set group =>   2
Atom   4N    basis set group =>   3
Atom   5O    basis set group =>   4
Atom   6H    basis set group =>   2
Atom   7H    basis set group =>   2
Atom   8H    basis set group =>   2
Atom   9O    basis set group =>   4
------------------------------------------------------------------------------
                             ORCA STARTUP CALCULATIONS
------------------------------------------------------------------------------
------------------------------------------------------------------------------
                   ___                                                        
                  /   \      - P O W E R E D   B Y -                         
                 /     \                                                     
                 |  |  |   _    _      __       _____    __    __             
                 |  |  |  | |  | |    /  \     |  _  \  |  |  /  |          
                  \  \/   | |  | |   /    \    | | | |  |  | /  /          
                 / \  \   | |__| |  /  /\  \   | |_| |  |  |/  /          
                |  |  |   |  __  | /  /__\  \  |    /   |      \           
                |  |  |   | |  | | |   __   |  |    \   |  |\   \          
                \     /   | |  | | |  |  |  |  | |\  \  |  | \   \       
                 \___/    |_|  |_| |__|  |__|  |_| \__\ |__|  \__/        
                                                                              
                      - O R C A' S   B I G   F R I E N D -                    
                                      &                                       
                       - I N T E G R A L  F E E D E R -                       
                                                                              
 v1 FN, 2020, v2 2021, v3 2022-2024                                           
------------------------------------------------------------------------------


----------------------
SHARK INTEGRAL PACKAGE
----------------------

Number of atoms                             ...     10
Number of basis functions                   ...     95
Number of shells                            ...     45
Maximum angular momentum                    ...      2
Integral batch strategy                     ... SHARK/LIBINT Hybrid
RI-J (if used) integral strategy            ... SPLIT-RIJ (Revised 2003 algorithm where possible)
Printlevel                                  ...      1
Contraction scheme used                     ... SEGMENTED contraction
Prescreening option                         ... SCHWARTZ
   Thresh                                   ... 2.500e-11
   Tcut                                     ... 2.500e-12
   Tpresel                                  ... 2.500e-12 
Coulomb Range Separation                    ... NOT USED
Exchange Range Separation                   ... NOT USED
Multipole approximations                    ... NOT USED
Finite Nucleus Model                        ... NOT USED
CABS basis                                  ... NOT available
Auxiliary Coulomb fitting basis             ... NOT available
Auxiliary J/K fitting basis                 ... NOT available
Auxiliary Correlation fitting basis         ... NOT available
Auxiliary 'external' fitting basis          ... NOT available

Checking pre-screening integrals            ... done (  0.0 sec) Dimension = 45
   => SHARK Basis and OBASIS are compatible. Storing Pre-screening
Shell pair information
Shell pair cut-off parameter TPreSel        ...   2.5e-12
Total number of shell pairs                 ...      1035
Shell pairs after pre-screening             ...      1005
Total number of primitive shell pairs       ...      5170
Primitive shell pairs kept                  ...      3727
          la=0 lb=0:    312 shell pairs
          la=1 lb=0:    363 shell pairs
          la=1 lb=1:    117 shell pairs
          la=2 lb=0:    123 shell pairs
          la=2 lb=1:     75 shell pairs
          la=2 lb=2:     15 shell pairs

Checking whether 4 symmetric matrices of dimension 95 fit in memory
:Max Core in MB      =   4096.00
 MB in use           =      2.63
 MB left             =   4093.37
 MB needed           =      0.14
 Data fit in memory  = YES
Calculating Nuclear repulsion               ... done (  0.0 sec) ENN=    180.629628978599 Eh

Diagonalization of the overlap matrix:
Smallest eigenvalue                        ... 4.471e-03
Time for diagonalization                   ...    0.001 sec
Threshold for overlap eigenvalues          ... 1.000e-07
Number of eigenvalues below threshold      ... 0
Time for construction of square roots      ...    0.000 sec
Total time needed                          ...    0.001 sec

-------------------
DFT GRID GENERATION
-------------------

General Integration Accuracy     IntAcc      ... 4.388
Radial Grid Type                 RadialGrid  ... OptM3 with GC (2021)
Angular Grid (max. ang.)         AngularGrid ... 4 (Lebedev-302)
Angular grid pruning method      GridPruning ... 4 (adaptive)
Weight generation scheme         WeightScheme... mBecke (2022)
Basis function cutoff            BFCut       ... 1.0000e-11
Integration weight cutoff        WCut        ... 1.0000e-14
Partially contracted basis set               ... off
Rotationally invariant grid construction     ... off
Angular grids for H and He will be reduced by one unit

Total number of grid points                  ...    46671
Total number of batches                      ...      734
Average number of points per batch           ...       63
Average number of grid points per atom       ...     4667
Grids setup in   0.1 sec
Initializing property integral containers    ... done (  0.0 sec)

SHARK setup successfully completed in   0.2 seconds

Maximum memory used throughout the entire STARTUP-calculation: 17.8 MB
-------------------------------------------------------------------------------
                                 ORCA GUESS
                   Start orbitals & Density for SCF / CASSCF
-------------------------------------------------------------------------------

------------
SCF SETTINGS
------------
Hamiltonian:
 Ab initio Hamiltonian  Method          .... Hartree-Fock(GTOs)


General Settings:
 Integral files         IntName         .... 4
 Hartree-Fock type      HFTyp           .... RHF
 Total Charge           Charge          ....    0
 Multiplicity           Mult            ....    1
 Number of Electrons    NEL             ....   40
 Basis Dimension        Dim             ....   95
 Nuclear Repulsion      ENuc            ....    180.6296289786 Eh

Convergence Acceleration:
 AO-DIIS                CNVDIIS         .... on
   Start iteration      DIISMaxIt       ....    12
   Startup error        DIISStart       ....  0.200000
   # of expansion vecs  DIISMaxEq       ....     5
   Bias factor          DIISBfac        ....   1.050
   Max. coefficient     DIISMaxC        ....  10.000
 MO-DIIS                CNVKDIIS        .... off
 Trust-Rad. Augm. Hess. CNVTRAH         .... auto
   Auto Start mean grad. ratio tolernc. ....  1.125000
   Auto Start start iteration           ....    50
   Auto Start num. interpolation iter.  ....    10
   Max. Number of Micro iterations      ....    24
   Max. Number of Macro iterations      .... Maxiter - #DIIS iter
   Number of Davidson start vectors     ....     2
   Converg. threshold    (grad. norm)   ....   1.000e-05
   Grad. Scal. Fac. for Micro threshold ....   0.100
   Minimum threshold for Micro iter.    ....   1.000e-02
   NR start threshold (gradient norm)   ....   1.000e-04
   Initial trust radius                 ....   0.400
   Minimum AH scaling param. (alpha)    ....   1.000
   Maximum AH scaling param. (alpha)    .... 1000.000
   Quad. conv. algorithm                .... NR
   White noise on init. David. guess    .... on
   Maximum white noise                  ....   0.010
   Pseudo random numbers                .... off
   Inactive MOs                         .... canonical
   Orbital update algorithm             .... Taylor
   Preconditioner                       .... Diag
   Full preconditioner red. dimension   ....   250
 SOSCF                 CNVSOSCF           .... on
   Start iteration     SOSCFMaxIt         ....   150
   Startup grad/error  SOSCFStart         ....  0.003300
   Hessian update      SOSCFHessUp        .... L-BFGS
   Autom. constraints  SOSCFAutoConstrain .... off
 Level Shifting         CNVShift        .... on
   Level shift para.    LevelShift      ....    0.2500
   Turn off err/grad.   ShiftErr        ....    0.0010
 Zerner damping         CNVZerner       .... off
 Static damping         CNVDamp         .... on
   Fraction old density DampFac         ....    0.7000
   Max. Damping (<1)    DampMax         ....    0.9800
   Min. Damping (>=0)   DampMin         ....    0.0000
   Turn off err/grad.   DampErr         ....    0.1000

SCF Procedure:
 Maximum # iterations   MaxIter         ....   125
 SCF integral mode      SCFMode         .... Direct
   Integral package                     .... SHARK and LIBINT hybrid scheme
 Reset frequency        DirectResetFreq ....    20
 Integral Threshold     Thresh          ....  2.500e-11 Eh
 Primitive CutOff       TCut            ....  2.500e-12 Eh

Convergence Tolerance:
 Convergence Check Mode ConvCheckMode   .... Total+1el-Energy
 Convergence forced     ConvForced      .... 1
 Energy Change          TolE            ....  1.000e-08 Eh
 1-El. energy change                    ....  1.000e-05 Eh
 Orbital Gradient       TolG            ....  1.000e-05
 Orbital Rotation angle TolX            ....  1.000e-05
 DIIS Error             TolErr          ....  5.000e-07

------------------------------
INITIAL GUESS: MODEL POTENTIAL
------------------------------
Loading Hartree-Fock densities                     ... done
Calculating cut-offs                               ... done
Initializing the effective Hamiltonian             ... done
Setting up the integral package (SHARK)            ... done
Starting the Coulomb interaction                   ... done (   0.0 sec)
Making the grid                                    ... done (   0.0 sec)
Mapping shells                                     ... done
Starting the XC term evaluation                    ... done (   0.0 sec)
Transforming the Hamiltonian                       ... done (   0.0 sec)
Diagonalizing the Hamiltonian                      ... done (   0.0 sec)
Back transforming the eigenvectors                 ... done (   0.0 sec)
Now organizing SCF variables                       ... done
                      ------------------
                      INITIAL GUESS DONE (   0.1 sec)
                      ------------------
             **** ENERGY FILE WAS UPDATED (4.en.tmp) ****
Finished Guess after   0.1 sec
Maximum memory used throughout the entire GUESS-calculation: 6.2 MB

-------------------------------------------------------------------------------------------
                                      ORCA LEAN-SCF
                              memory conserving SCF solver
-------------------------------------------------------------------------------------------

----------------------------------------D-I-I-S--------------------------------------------
Iteration    Energy (Eh)           Delta-E    RMSDP     MaxDP     DIISErr   Damp  Time(sec)
-------------------------------------------------------------------------------------------
               ***  Starting incremental Fock matrix formation  ***
    1    -282.5993941312344191     0.00e+00  3.63e-03  6.58e-02  2.50e-01  0.700   0.2
    2    -282.6876913851410222    -8.83e-02  2.63e-03  4.73e-02  1.54e-01  0.700   0.2
                               ***Turning on AO-DIIS***
    3    -282.7381024365395774    -5.04e-02  1.34e-03  2.11e-02  8.50e-02  0.700   0.2
    4    -282.7696298970187172    -3.15e-02  3.01e-03  4.19e-02  5.62e-02  0.000   0.2
    5    -282.8396088784459153    -7.00e-02  3.98e-04  4.27e-03  4.10e-03  0.000   0.2
                              *** Initializing SOSCF ***
---------------------------------------S-O-S-C-F--------------------------------------
Iteration    Energy (Eh)           Delta-E    RMSDP     MaxDP     MaxGrad    Time(sec)
--------------------------------------------------------------------------------------
    6    -282.8399328950613381    -3.24e-04  2.01e-04  2.11e-03  2.06e-03     0.2
               *** Restarting incremental Fock matrix formation ***
    7    -282.8400113115901036    -7.84e-05  1.27e-04  1.46e-03  1.68e-03     0.2
    8    -282.8400369675009074    -2.57e-05  1.51e-04  1.77e-03  4.85e-04     0.2
    9    -282.8400461312637617    -9.16e-06  2.68e-05  3.01e-04  2.91e-04     0.2
   10    -282.8400470120991486    -8.81e-07  8.33e-06  9.71e-05  6.91e-05     0.2
   11    -282.8400470905202724    -7.84e-08  4.06e-06  5.61e-05  1.98e-05     0.2
   12    -282.8400471026441778    -1.21e-08  8.66e-07  1.39e-05  8.62e-06     0.2
   13    -282.8400471035462260    -9.02e-10  2.07e-07  2.79e-06  9.28e-07     0.2
                 **** Energy Check signals convergence ****

               *****************************************************
               *                     SUCCESS                       *
               *           SCF CONVERGED AFTER  13 CYCLES          *
               *****************************************************

             **** ENERGY FILE WAS UPDATED (4.en.tmp) ****

----------------
TOTAL SCF ENERGY
----------------

Total Energy       :       -282.84004710399330 Eh           -7696.46896 eV

Components:
Nuclear Repulsion  :        180.62962897859950 Eh            4915.18209 eV
Electronic Energy  :       -463.46967608259280 Eh          -12611.65105 eV
One Electron Energy:       -744.99082751445394 Eh          -20272.23104 eV
Two Electron Energy:        281.52115143186114 Eh            7660.57999 eV

Virial components:
Potential Energy   :       -565.23812359860995 Eh          -15380.91129 eV
Kinetic Energy     :        282.39807649461665 Eh            7684.44233 eV
Virial Ratio       :          2.00156506239300

---------------
SCF CONVERGENCE
---------------

  Last Energy change         ...    9.0205e-10  Tolerance :   1.0000e-08
  Last MAX-Density change    ...    2.7946e-06  Tolerance :   1.0000e-07
  Last RMS-Density change    ...    2.0684e-07  Tolerance :   5.0000e-09
  Last DIIS Error            ...    2.0597e-03  Tolerance :   5.0000e-07
  Last Orbital Gradient      ...    9.2804e-07  Tolerance :   1.0000e-05
  Last Orbital Rotation      ...    1.6776e-06  Tolerance :   1.0000e-05


----------------
ORBITAL ENERGIES
----------------

  NO   OCC          E(Eh)            E(eV) 
   0   2.0000     -20.619790      -561.0930 
   1   2.0000     -20.551651      -559.2388 
   2   2.0000     -15.553405      -423.2297 
   3   2.0000     -11.388441      -309.8952 
   4   2.0000     -11.275566      -306.8238 
   5   2.0000      -1.471006       -40.0281 
   6   2.0000      -1.362383       -37.0723 
   7   2.0000      -1.194746       -32.5107 
   8   2.0000      -0.970516       -26.4091 
   9   2.0000      -0.830702       -22.6045 
  10   2.0000      -0.710271       -19.3275 
  11   2.0000      -0.686222       -18.6730 
  12   2.0000      -0.665019       -18.0961 
  13   2.0000      -0.639466       -17.4008 
  14   2.0000      -0.596594       -16.2341 
  15   2.0000      -0.573874       -15.6159 
  16   2.0000      -0.555445       -15.1144 
  17   2.0000      -0.480695       -13.0804 
  18   2.0000      -0.450181       -12.2500 
  19   2.0000      -0.398292       -10.8381 
  20   0.0000       0.183775         5.0008 
  21   0.0000       0.212276         5.7763 
  22   0.0000       0.249407         6.7867 
  23   0.0000       0.278623         7.5817 
  24   0.0000       0.304992         8.2993 
  25   0.0000       0.329055         8.9540 
  26   0.0000       0.404972        11.0198 
  27   0.0000       0.431519        11.7422 
  28   0.0000       0.491898        13.3852 
  29   0.0000       0.555400        15.1132 
  30   0.0000       0.754086        20.5197 
*Only the first 10 virtual orbitals were printed.

                    ********************************
                    * MULLIKEN POPULATION ANALYSIS *
                    ********************************

-----------------------
MULLIKEN ATOMIC CHARGES
-----------------------
   0 C :   -0.111048
   1 C :    0.797602
   2 H :    0.274938
   3 H :    0.289396
   4 N :   -0.706527
   5 O :   -0.638229
   6 H :    0.168322
   7 H :    0.129267
   8 H :    0.375665
   9 O :   -0.579387
Sum of atomic charges:    0.0000000

--------------------------------
MULLIKEN REDUCED ORBITAL CHARGES
--------------------------------
  0 C s       :     3.209831  s :     3.209831
      pz      :     0.947897  p :     2.837709
      px      :     1.040855
      py      :     0.848957
      dz2     :     0.003786  d :     0.063507
      dxz     :     0.016393
      dyz     :     0.020285
      dx2y2   :     0.009224
      dxy     :     0.013820

  1 C s       :     2.939486  s :     2.939486
      pz      :     0.649938  p :     2.114724
      px      :     0.680411
      py      :     0.784375
      dz2     :     0.032219  d :     0.148188
      dxz     :     0.036696
      dyz     :     0.025667
      dx2y2   :     0.029582
      dxy     :     0.024023

  2 H s       :     0.698786  s :     0.698786
      pz      :     0.007300  p :     0.026276
      px      :     0.007586
      py      :     0.011389

  3 H s       :     0.684111  s :     0.684111
      pz      :     0.011133  p :     0.026492
      px      :     0.009743
      py      :     0.005616

  4 N s       :     3.616456  s :     3.616456
      pz      :     1.308187  p :     4.056300
      px      :     1.514871
      py      :     1.233242
      dz2     :     0.001346  d :     0.033771
      dxz     :     0.008926
      dyz     :     0.012019
      dx2y2   :     0.003938
      dxy     :     0.007543

  5 O s       :     3.831883  s :     3.831883
      pz      :     1.440827  p :     4.781222
      px      :     1.733378
      py      :     1.607016
      dz2     :     0.005464  d :     0.025124
      dxz     :     0.008053
      dyz     :     0.003413
      dx2y2   :     0.003587
      dxy     :     0.004607

  6 H s       :     0.819357  s :     0.819357
      pz      :     0.003813  p :     0.012321
      px      :     0.006235
      py      :     0.002273

  7 H s       :     0.858330  s :     0.858330
      pz      :     0.004798  p :     0.012403
      px      :     0.004952
      py      :     0.002653

  8 H s       :     0.582666  s :     0.582666
      pz      :     0.011668  p :     0.041669
      px      :     0.010131
      py      :     0.019870

  9 O s       :     3.872107  s :     3.872107
      pz      :     1.711178  p :     4.674200
      px      :     1.416258
      py      :     1.546764
      dz2     :     0.003894  d :     0.033081
      dxz     :     0.005124
      dyz     :     0.005288
      dx2y2   :     0.011052
      dxy     :     0.007722



                     *******************************
                     * LOEWDIN POPULATION ANALYSIS *
                     *******************************

----------------------
LOEWDIN ATOMIC CHARGES
----------------------
   0 C :   -0.058076
   1 C :    0.243764
   2 H :    0.131041
   3 H :    0.134525
   4 N :   -0.297601
   5 O :   -0.209970
   6 H :    0.088895
   7 H :    0.067467
   8 H :    0.202969
   9 O :   -0.303015

-------------------------------
LOEWDIN REDUCED ORBITAL CHARGES
-------------------------------
  0 C s       :     2.885985  s :     2.885985
      pz      :     1.021590  p :     3.048961
      px      :     1.059203
      py      :     0.968169
      dz2     :     0.007745  d :     0.123130
      dxz     :     0.029829
      dyz     :     0.040733
      dx2y2   :     0.018280
      dxy     :     0.026542

  1 C s       :     2.839647  s :     2.839647
      pz      :     0.838213  p :     2.597691
      px      :     0.851050
      py      :     0.908428
      dz2     :     0.070161  d :     0.318898
      dxz     :     0.085463
      dyz     :     0.052262
      dx2y2   :     0.059372
      dxy     :     0.051641

  2 H s       :     0.787209  s :     0.787209
      pz      :     0.023628  p :     0.081750
      px      :     0.025145
      py      :     0.032977

  3 H s       :     0.782289  s :     0.782289
      pz      :     0.032671  p :     0.083186
      px      :     0.032503
      py      :     0.018012

  4 N s       :     3.187226  s :     3.187226
      pz      :     1.310723  p :     4.050266
      px      :     1.489892
      py      :     1.249651
      dz2     :     0.003819  d :     0.060108
      dxz     :     0.014746
      dyz     :     0.021508
      dx2y2   :     0.007263
      dxy     :     0.012772

  5 O s       :     3.457323  s :     3.457323
      pz      :     1.435481  p :     4.705160
      px      :     1.703711
      py      :     1.565967
      dz2     :     0.011186  d :     0.047487
      dxz     :     0.014627
      dyz     :     0.010146
      dx2y2   :     0.005373
      dxy     :     0.006156

  6 H s       :     0.871514  s :     0.871514
      pz      :     0.012519  p :     0.039591
      px      :     0.019114
      py      :     0.007958

  7 H s       :     0.893750  s :     0.893750
      pz      :     0.014976  p :     0.038784
      px      :     0.014828
      py      :     0.008980

  8 H s       :     0.676347  s :     0.676347
      pz      :     0.032864  p :     0.120684
      px      :     0.031470
      py      :     0.056350

  9 O s       :     3.546959  s :     3.546959
      pz      :     1.680697  p :     4.698521
      px      :     1.456057
      py      :     1.561767
      dz2     :     0.007655  d :     0.057535
      dxz     :     0.010105
      dyz     :     0.007890
      dx2y2   :     0.013308
      dxy     :     0.018576



                      *****************************
                      * MAYER POPULATION ANALYSIS *
                      *****************************

  NA   - Mulliken gross atomic population
  ZA   - Total nuclear charge
  QA   - Mulliken gross atomic charge
  VA   - Mayer's total valence
  BVA  - Mayer's bonded valence
  FA   - Mayer's free valence

  ATOM       NA         ZA         QA         VA         BVA        FA
  0 C      6.1110     6.0000    -0.1110     3.7832     3.7832     0.0000
  1 C      5.2024     6.0000     0.7976     3.7293     3.7293    -0.0000
  2 H      0.7251     1.0000     0.2749     0.9031     0.9031    -0.0000
  3 H      0.7106     1.0000     0.2894     0.8994     0.8994     0.0000
  4 N      7.7065     7.0000    -0.7065     2.7194     2.7194     0.0000
  5 O      8.6382     8.0000    -0.6382     1.8342     1.8342     0.0000
  6 H      0.8317     1.0000     0.1683     0.9402     0.9402    -0.0000
  7 H      0.8707     1.0000     0.1293     0.9403     0.9403     0.0000
  8 H      0.6243     1.0000     0.3757     0.8699     0.8699    -0.0000
  9 O      8.5794     8.0000    -0.5794     1.9042     1.9042     0.0000

  Mayer bond orders larger than 0.100000
B(  0-C ,  1-C ) :   0.9438 B(  0-C ,  4-N ) :   0.9416 B(  0-C ,  6-H ) :   0.9614 
B(  0-C ,  7-H ) :   0.9499 B(  1-C ,  5-O ) :   0.9775 B(  1-C ,  9-O ) :   1.8386 
B(  2-H ,  4-N ) :   0.9083 B(  3-H ,  4-N ) :   0.8941 B(  5-O ,  8-H ) :   0.8379 


-------
TIMINGS
-------

Total SCF time: 0 days 0 hours 0 min 2 sec 

Total time                  ....       2.921 sec
Sum of individual times     ....       2.757 sec  ( 94.4%)

SCF preparation             ....       0.013 sec  (  0.5%)
Fock matrix formation       ....       2.728 sec  ( 93.4%)
  Startup                   ....       0.000 sec  (  0.0% of F)
  Coulomb+Exchange Fock     ....       2.882 sec  (105.6% of F)
Diagonalization             ....       0.000 sec  (  0.0%)
Density matrix formation    ....       0.002 sec  (  0.1%)
Total Energy calculation    ....       0.000 sec  (  0.0%)
Population analysis         ....       0.001 sec  (  0.0%)
Orbital Transformation      ....       0.002 sec  (  0.1%)
Orbital Orthonormalization  ....       0.000 sec  (  0.0%)
DIIS solution               ....       0.007 sec  (  0.2%)
SOSCF solution              ....       0.004 sec  (  0.1%)
Finished LeanSCF after   2.9 sec

Maximum memory used throughout the entire LEANSCF-calculation: 9.3 MB

------------------------------------------------------------------------------
                                ORCA  MP2 
------------------------------------------------------------------------------

Freezing NCore=10 chemical core electrons
MP2 will be done in the AO integral direct mode
The Q1-step will be done using symmetric double matrices
Dimension of the basis                    ...   95
Memory devoted for MP2                    ... 4096 MB   
Memory needed for all in one shot         ...   51 MB
Number of MOs that can be treated together... 1238      
MP2 density construction                  ... relaxed
The MP2 gradient is requested => amplitudes will be stored on disk
Total number of MOs              ...   15
Number of MOs treated per batch  ...   15 
Number of batches necessary      ...    1 
OPERATORS   0/  0 PASS   0
-----------------------------------------------
 MP2 CORRELATION ENERGY   :     -0.789087588 Eh
-----------------------------------------------


---------------------
MP2 DENSITY FORMATION
---------------------

Completing the external part of the density      ... done
Storing the unrelaxed density                    ... done

Calculating G(D)                                 ... done
Completing the Lagrangian                        ... done
Solving the Z-vector equations                   ... 
-------------------
SHARK CP-SCF DRIVER
-------------------

Dimension of the orbital basis          ...     95
Dimension of the CPSCF-problem          ...   1500
Number of operators                     ...      1
Max. number of iterations               ...    128
Convergence Tolerance                   ... 1.0e-04
Number of perturbations                 ...      1
Perturbation type                       ... REAL

----------------------------
POPLE LINEAR EQUATION SOLVER
----------------------------

  ITERATION   0:   ||err||_max =   1.0913e-01 (   0.3 sec)
  ITERATION   1:   ||err||_max =   2.8199e-02 (   0.3 sec)
  ITERATION   2:   ||err||_max =   1.2115e-02 (   0.3 sec)
  ITERATION   3:   ||err||_max =   2.9328e-03 (   0.3 sec)
  ITERATION   4:   ||err||_max =   9.7775e-04 (   0.3 sec)
  ITERATION   5:   ||err||_max =   2.3982e-04 (   0.3 sec)
  ITERATION   6:   ||err||_max =   6.8124e-05 (   0.3 sec)
                                                 ... done
Finalizing the relaxed density                   ... done
Transforming P to the AO basis                   ... done
Storing the relaxed density                      ... done

------------------------------------
ENERGY WEIGHTED DENSITY FINALIZATION
------------------------------------

Gathering the parts of the W-matrix              ...                                                      done
Forming the Z-density                            ... done
Transforming Z to the AO basis                   ... done
Calculating G(Z)                                 ... done
Finalizing the W-matrix                          ...                                                      done
Transforming W to the AO basis and storing       ... done

                *********************************************
                * UNRELAXED MP2 DENSITY POPULATION ANALYSIS *
                *********************************************

------------------------------------------------------------------------------
                           ORCA POPULATION ANALYSIS
------------------------------------------------------------------------------
Input electron density              ... 4.pmp2ur
BaseName (.gbw .S,...)              ... 4

                    ********************************
                    * MULLIKEN POPULATION ANALYSIS *
                    ********************************

-----------------------
MULLIKEN ATOMIC CHARGES
-----------------------
   0 C :   -0.116325
   1 C :    0.765256
   2 H :    0.273848
   3 H :    0.287985
   4 N :   -0.700073
   5 O :   -0.624973
   6 H :    0.168961
   7 H :    0.129923
   8 H :    0.372512
   9 O :   -0.557114
Sum of atomic charges:    0.0000000

--------------------------------
MULLIKEN REDUCED ORBITAL CHARGES
--------------------------------
  0 C s       :     3.207399  s :     3.207399
      pz      :     0.945812  p :     2.830589
      px      :     1.037261
      py      :     0.847516
      dz2     :     0.007173  d :     0.078338
      dxz     :     0.019216
      dyz     :     0.022843
      dx2y2   :     0.012391
      dxy     :     0.016716
  1 C s       :     2.941149  s :     2.941149
      pz      :     0.657715  p :     2.135164
      px      :     0.688499
      py      :     0.788949
      dz2     :     0.034368  d :     0.158431
      dxz     :     0.038598
      dyz     :     0.027692
      dx2y2   :     0.031632
      dxy     :     0.026141
  2 H s       :     0.697890  s :     0.697890
      pz      :     0.007998  p :     0.028262
      px      :     0.008367
      py      :     0.011897
  3 H s       :     0.683543  s :     0.683543
      pz      :     0.011663  p :     0.028472
      px      :     0.010406
      py      :     0.006402
  4 N s       :     3.611885  s :     3.611885
      pz      :     1.300644  p :     4.032645
      px      :     1.505489
      py      :     1.226511
      dz2     :     0.005878  d :     0.055544
      dxz     :     0.013265
      dyz     :     0.015970
      dx2y2   :     0.008484
      dxy     :     0.011947
  5 O s       :     3.827749  s :     3.827749
      pz      :     1.431351  p :     4.749133
      px      :     1.721294
      py      :     1.596488
      dz2     :     0.010123  d :     0.048091
      dxz     :     0.012512
      dyz     :     0.008174
      dx2y2   :     0.008137
      dxy     :     0.009144
  6 H s       :     0.816111  s :     0.816111
      pz      :     0.004709  p :     0.014928
      px      :     0.006987
      py      :     0.003232
  7 H s       :     0.854969  s :     0.854969
      pz      :     0.005676  p :     0.015108
      px      :     0.005780
      py      :     0.003652
  8 H s       :     0.584690  s :     0.584690
      pz      :     0.012058  p :     0.042798
      px      :     0.010686
      py      :     0.020054
  9 O s       :     3.867742  s :     3.867742
      pz      :     1.696734  p :     4.634878
      px      :     1.404406
      py      :     1.533738
      dz2     :     0.008282  d :     0.054493
      dxz     :     0.009515
      dyz     :     0.009622
      dx2y2   :     0.015312
      dxy     :     0.011762


                     *******************************
                     * LOEWDIN POPULATION ANALYSIS *
                     *******************************

----------------------
LOEWDIN ATOMIC CHARGES
----------------------
   0 C :   -0.061021
   1 C :    0.220218
   2 H :    0.130418
   3 H :    0.133752
   4 N :   -0.294206
   5 O :   -0.201469
   6 H :    0.089034
   7 H :    0.067430
   8 H :    0.200675
   9 O :   -0.284829

-------------------------------
LOEWDIN REDUCED ORBITAL CHARGES
-------------------------------
  0 C s       :     2.885866  s :     2.885866
      pz      :     1.016939  p :     3.035135
      px      :     1.054139
      py      :     0.964057
      dz2     :     0.011225  d :     0.140020
      dxz     :     0.033245
      dyz     :     0.043911
      dx2y2   :     0.021756
      dxy     :     0.029882
  1 C s       :     2.840435  s :     2.840435
      pz      :     0.842248  p :     2.609428
      px      :     0.856468
      py      :     0.910711
      dz2     :     0.072226  d :     0.329920
      dxz     :     0.087478
      dyz     :     0.054383
      dx2y2   :     0.061070
      dxy     :     0.054762
  2 H s       :     0.784179  s :     0.784179
      pz      :     0.024872  p :     0.085404
      px      :     0.026305
      py      :     0.034227
  3 H s       :     0.779468  s :     0.779468
      pz      :     0.033788  p :     0.086780
      px      :     0.033857
      py      :     0.019135
  4 N s       :     3.185410  s :     3.185410
      pz      :     1.302739  p :     4.025200
      px      :     1.480205
      py      :     1.242256
      dz2     :     0.008280  d :     0.083597
      dxz     :     0.019642
      dyz     :     0.026160
      dx2y2   :     0.011888
      dxy     :     0.017627
  5 O s       :     3.455361  s :     3.455361
      pz      :     1.426380  p :     4.674206
      px      :     1.692164
      py      :     1.555662
      dz2     :     0.016183  d :     0.071903
      dxz     :     0.019707
      dyz     :     0.015147
      dx2y2   :     0.009994
      dxy     :     0.010871
  6 H s       :     0.866980  s :     0.866980
      pz      :     0.014016  p :     0.043986
      px      :     0.020691
      py      :     0.009280
  7 H s       :     0.889232  s :     0.889232
      pz      :     0.016578  p :     0.043338
      px      :     0.016390
      py      :     0.010370
  8 H s       :     0.676224  s :     0.676224
      pz      :     0.033557  p :     0.123102
      px      :     0.032275
      py      :     0.057270
  9 O s       :     3.543962  s :     3.543962
      pz      :     1.666768  p :     4.659399
      px      :     1.443939
      py      :     1.548692
      dz2     :     0.012354  d :     0.081469
      dxz     :     0.014847
      dyz     :     0.012564
      dx2y2   :     0.018040
      dxy     :     0.023664


                      *****************************
                      * MAYER POPULATION ANALYSIS *
                      *****************************

  NA   - Mulliken gross atomic population
  ZA   - Total nuclear charge
  QA   - Mulliken gross atomic charge
  VA   - Mayer's total valence
  BVA  - Mayer's bonded valence
  FA   - Mayer's free valence

  ATOM       NA         ZA         QA         VA         BVA        FA
  0 C      6.1163     6.0000    -0.1163     3.8622     3.6060     0.2562
  1 C      5.2347     6.0000     0.7653     3.7894     3.5067     0.2827
  2 H      0.7262     1.0000     0.2738     0.9099     0.8652     0.0447
  3 H      0.7120     1.0000     0.2880     0.9063     0.8622     0.0440
  4 N      7.7001     7.0000    -0.7001     2.9126     2.5930     0.3196
  5 O      8.6250     8.0000    -0.6250     2.0926     1.7375     0.3550
  6 H      0.8310     1.0000     0.1690     0.9481     0.9032     0.0450
  7 H      0.8701     1.0000     0.1299     0.9494     0.9005     0.0489
  8 H      0.6275     1.0000     0.3725     0.8767     0.8331     0.0436
  9 O      8.5571     8.0000    -0.5571     2.1672     1.7724     0.3948

  Mayer bond orders larger than 0.100000
B(  0-C ,  1-C ) :   0.8961 B(  0-C ,  4-N ) :   0.8889 B(  0-C ,  6-H ) :   0.9259 
B(  0-C ,  7-H ) :   0.9130 B(  1-C ,  5-O ) :   0.9245 B(  1-C ,  9-O ) :   1.7194 
B(  2-H ,  4-N ) :   0.8720 B(  3-H ,  4-N ) :   0.8584 B(  5-O ,  8-H ) :   0.8034 



                *******************************************
                * RELAXED MP2 DENSITY POPULATION ANALYSIS *
                *******************************************

------------------------------------------------------------------------------
                           ORCA POPULATION ANALYSIS
------------------------------------------------------------------------------
Input electron density              ... 4.pmp2re
BaseName (.gbw .S,...)              ... 4

                    ********************************
                    * MULLIKEN POPULATION ANALYSIS *
                    ********************************

-----------------------
MULLIKEN ATOMIC CHARGES
-----------------------
   0 C :   -0.138252
   1 C :    0.585450
   2 H :    0.258111
   3 H :    0.269795
   4 N :   -0.640525
   5 O :   -0.528095
   6 H :    0.154981
   7 H :    0.120330
   8 H :    0.347385
   9 O :   -0.429180
Sum of atomic charges:    0.0000000

--------------------------------
MULLIKEN REDUCED ORBITAL CHARGES
--------------------------------
  0 C s       :     3.191281  s :     3.191281
      pz      :     0.964286  p :     2.874746
      px      :     1.037279
      py      :     0.873181
      dz2     :     0.007395  d :     0.072225
      dxz     :     0.017598
      dyz     :     0.020116
      dx2y2   :     0.011841
      dxy     :     0.015275
  1 C s       :     2.960549  s :     2.960549
      pz      :     0.720144  p :     2.305154
      px      :     0.749833
      py      :     0.835178
      dz2     :     0.033047  d :     0.148846
      dxz     :     0.037086
      dyz     :     0.025297
      dx2y2   :     0.028682
      dxy     :     0.024733
  2 H s       :     0.714785  s :     0.714785
      pz      :     0.007757  p :     0.027104
      px      :     0.008292
      py      :     0.011056
  3 H s       :     0.702910  s :     0.702910
      pz      :     0.010939  p :     0.027295
      px      :     0.009911
      py      :     0.006445
  4 N s       :     3.596530  s :     3.596530
      pz      :     1.285322  p :     3.991255
      px      :     1.489927
      py      :     1.216005
      dz2     :     0.006105  d :     0.052740
      dxz     :     0.012701
      dyz     :     0.014173
      dx2y2   :     0.008329
      dxy     :     0.011433
  5 O s       :     3.810811  s :     3.810811
      pz      :     1.414539  p :     4.670674
      px      :     1.693443
      py      :     1.562693
      dz2     :     0.009640  d :     0.046610
      dxz     :     0.011404
      dyz     :     0.008548
      dx2y2   :     0.008082
      dxy     :     0.008937
  6 H s       :     0.831032  s :     0.831032
      pz      :     0.004478  p :     0.013988
      px      :     0.006332
      py      :     0.003178
  7 H s       :     0.865369  s :     0.865369
      pz      :     0.005267  p :     0.014301
      px      :     0.005347
      py      :     0.003688
  8 H s       :     0.611638  s :     0.611638
      pz      :     0.011710  p :     0.040976
      px      :     0.010707
      py      :     0.018559
  9 O s       :     3.843741  s :     3.843741
      pz      :     1.650712  p :     4.533756
      px      :     1.381379
      py      :     1.501665
      dz2     :     0.008047  d :     0.051682
      dxz     :     0.009475
      dyz     :     0.008994
      dx2y2   :     0.014102
      dxy     :     0.011064


                     *******************************
                     * LOEWDIN POPULATION ANALYSIS *
                     *******************************

----------------------
LOEWDIN ATOMIC CHARGES
----------------------
   0 C :   -0.083522
   1 C :    0.141952
   2 H :    0.128435
   3 H :    0.130553
   4 N :   -0.284357
   5 O :   -0.166624
   6 H :    0.088462
   7 H :    0.066981
   8 H :    0.191267
   9 O :   -0.213148

-------------------------------
LOEWDIN REDUCED ORBITAL CHARGES
-------------------------------
  0 C s       :     2.889176  s :     2.889176
      pz      :     1.025980  p :     3.060554
      px      :     1.059841
      py      :     0.974734
      dz2     :     0.011487  d :     0.133792
      dxz     :     0.031865
      dyz     :     0.040729
      dx2y2   :     0.021233
      dxy     :     0.028478
  1 C s       :     2.843271  s :     2.843271
      pz      :     0.867352  p :     2.691848
      px      :     0.891160
      py      :     0.933337
      dz2     :     0.071967  d :     0.322928
      dxz     :     0.087161
      dyz     :     0.051984
      dx2y2   :     0.057317
      dxy     :     0.054499
  2 H s       :     0.787423  s :     0.787423
      pz      :     0.024716  p :     0.084143
      px      :     0.026202
      py      :     0.033224
  3 H s       :     0.784018  s :     0.784018
      pz      :     0.032849  p :     0.085429
      px      :     0.033425
      py      :     0.019155
  4 N s       :     3.186466  s :     3.186466
      pz      :     1.299956  p :     4.016257
      px      :     1.475401
      py      :     1.240899
      dz2     :     0.008640  d :     0.081634
      dxz     :     0.019211
      dyz     :     0.024641
      dx2y2   :     0.011827
      dxy     :     0.017315
  5 O s       :     3.460378  s :     3.460378
      pz      :     1.421699  p :     4.633581
      px      :     1.675042
      py      :     1.536841
      dz2     :     0.016387  d :     0.072665
      dxz     :     0.019475
      dyz     :     0.015680
      dx2y2   :     0.010116
      dxy     :     0.011006
  6 H s       :     0.868100  s :     0.868100
      pz      :     0.013827  p :     0.043438
      px      :     0.020177
      py      :     0.009434
  7 H s       :     0.889779  s :     0.889779
      pz      :     0.016401  p :     0.043240
      px      :     0.016119
      py      :     0.010720
  8 H s       :     0.687787  s :     0.687787
      pz      :     0.033082  p :     0.120945
      px      :     0.032183
      py      :     0.055680
  9 O s       :     3.546055  s :     3.546055
      pz      :     1.634338  p :     4.586034
      px      :     1.426600
      py      :     1.525096
      dz2     :     0.012281  d :     0.081059
      dxz     :     0.015025
      dyz     :     0.012431
      dx2y2   :     0.018316
      dxy     :     0.023006


                      *****************************
                      * MAYER POPULATION ANALYSIS *
                      *****************************

  NA   - Mulliken gross atomic population
  ZA   - Total nuclear charge
  QA   - Mulliken gross atomic charge
  VA   - Mayer's total valence
  BVA  - Mayer's bonded valence
  FA   - Mayer's free valence

  ATOM       NA         ZA         QA         VA         BVA        FA
  0 C      6.1383     6.0000    -0.1383     3.9028     3.6493     0.2535
  1 C      5.4145     6.0000     0.5855     3.9979     3.7319     0.2660
  2 H      0.7419     1.0000     0.2581     0.9174     0.8726     0.0448
  3 H      0.7302     1.0000     0.2698     0.9187     0.8747     0.0440
  4 N      7.6405     7.0000    -0.6405     2.9694     2.6534     0.3160
  5 O      8.5281     8.0000    -0.5281     2.2080     1.8611     0.3469
  6 H      0.8450     1.0000     0.1550     0.9530     0.9080     0.0450
  7 H      0.8797     1.0000     0.1203     0.9504     0.9016     0.0488
  8 H      0.6526     1.0000     0.3474     0.8979     0.8554     0.0425
  9 O      8.4292     8.0000    -0.4292     2.3237     1.9437     0.3800

  Mayer bond orders larger than 0.100000
B(  0-C ,  1-C ) :   0.9027 B(  0-C ,  4-N ) :   0.9228 B(  0-C ,  6-H ) :   0.9206 
B(  0-C ,  7-H ) :   0.9031 B(  1-C ,  5-O ) :   1.0029 B(  1-C ,  9-O ) :   1.8399 
B(  2-H ,  4-N ) :   0.8746 B(  3-H ,  4-N ) :   0.8629 B(  5-O ,  8-H ) :   0.8101 



----------------------------------
MP2 DERIVATIVE INTEGRAL GENERATION
----------------------------------

Input SCF Electron Density              ... 4.scfp
Input Correlated Electron Density       ... 4.pmp2re
Input Energy Weighted Density           ... 4.wmp2.tmp
Input Wavefunction Amplitudes           ... 4.mp2tsaa.tmp

Nuclear repulsion gradient              ... done (  0.0 sec)
HCore & Overlap gradient  (SHARK)       ... done (  0.0 sec)
Analytic two-electron gradient terms    ... 
  Batch handling in the gradient evaluation:
  General contraction                   ... not used
  Memory available                      ... 4091.3 MB
  Memory per occupied orbital in Q2     ...    1.0 MB
  Memory per occupied orbital in Q3     ...    0.0 MB
  Total memory requirement per |i>      ...    1.1 MB
  Number of orbitals treated per batch  ...     15
  Number of batches to be done          ...      1
done (  1.5 sec)

---------------------------------------
MP2 TOTAL ENERGY:     -283.629134692 Eh
---------------------------------------

The final MP2 gradient
  0:   0.00644509   0.00219039   0.00415929
  1:   0.00551536  -0.01453270   0.00285338
  2:   0.00025895   0.00150107  -0.00086106
  3:   0.00033011  -0.00085269   0.00273782
  4:  -0.00029714  -0.00460171  -0.00662873
  5:   0.01930514  -0.00604967  -0.01859323
  6:   0.00146121   0.00444887  -0.00155639
  7:  -0.00401041  -0.00078961  -0.00100602
  8:  -0.00372617   0.00020975   0.00585998
  9:  -0.02528213   0.01847630   0.01303495

-----------------------------------
NORM OF THE MP2 GRADIENT:  0.048845
-----------------------------------

Maximum memory used throughout the entire MP2-calculation: 63.0 MB

-------------------------   --------------------
FINAL SINGLE POINT ENERGY      -283.629134692193
-------------------------   --------------------

------------------------------------------------------------------------------
                         ORCA GEOMETRY RELAXATION STEP
------------------------------------------------------------------------------

Reading the OPT-File                    .... done
Getting information on internals        .... done
Copying old internal coords+grads       .... done
Making the new internal coordinates     .... (2022 redundants) done
Validating the new internal coordinates .... (2022 redundants) done
Calculating the B-matrix                .... done
Calculating the G,G- and P matrices     .... done
Transforming gradient to internals      .... done
Projecting the internal gradient        .... done
Number of atoms                         ....  10
Number of internal coordinates          ....  35
Current Energy                          ....  -283.629134692 Eh
Current gradient norm                   ....     0.048844612 Eh/bohr
Maximum allowed component of the step   ....  0.300
Current trust radius                    ....  0.300
Evaluating the initial hessian          ....  (Almloef) done
Projecting the Hessian                  .... done
Forming the augmented Hessian           .... done
Diagonalizing the augmented Hessian     .... done
Last element of RFO vector              ....  0.995158361
Lowest eigenvalues of augmented Hessian:
 -0.002677251  0.011632860  0.015704202  0.019282628  0.036925286
Length of the computed step             ....  0.098762638
The final length of the internal step   ....  0.098762638
Converting the step to Cartesian space:
 Initial RMS(Int)=    0.0166939327
Transforming coordinates:
 Iter   0:  RMS(Cart)=    0.0171946225 RMS(Int)=    0.0166328272
done
Storing new coordinates                 .... done

                                .--------------------.
          ----------------------|Geometry convergence|-------------------------
          Item                value                   Tolerance       Converged
          ---------------------------------------------------------------------
          RMS gradient        0.0072347749            0.0001000000      NO
          MAX gradient        0.0337688338            0.0003000000      NO
          RMS step            0.0166939327            0.0020000000      NO
          MAX step            0.0418474646            0.0040000000      NO
          -------------------------------------------------------------------------
          ........................................................
          Max(Bonds)      0.0159      Max(Angles)    1.90
          Max(Dihed)        2.40      Max(Improp)    0.00
          ---------------------------------------------------------------------

The optimization has not yet converged - more geometry cycles are needed


    ---------------------------------------------------------------------------
                         Redundant Internal Coordinates
                            (Angstroem and degrees)

        Definition                    Value    dE/dq     Step     New-Value
    ----------------------------------------------------------------------------
     1. B(C   1,C   0)                1.5139  0.000674 -0.0022    1.5117   
     2. B(N   4,H   3)                1.0138  0.002032 -0.0023    1.0115   
     3. B(N   4,C   0)                1.4485 -0.006468  0.0067    1.4552   
     4. B(N   4,H   2)                1.0133  0.001403 -0.0017    1.0116   
     5. B(O   5,C   1)                1.3373 -0.017774  0.0137    1.3510   
     6. B(O   5,H   3)                2.3385  0.001029 -0.0000    2.3385   
     7. B(H   6,C   0)                1.0934  0.003601 -0.0053    1.0881   
     8. B(H   7,C   0)                1.1073  0.003630 -0.0056    1.1016   
     9. B(H   8,O   5)                0.9701  0.001237 -0.0013    0.9688   
    10. B(O   9,C   1)                1.2008 -0.033769  0.0159    1.2167   
    11. A(N   4,C   0,H   7)          114.24 -0.001785    0.69    114.93   
    12. A(C   1,C   0,H   7)          105.18  0.000631    0.17    105.35   
    13. A(C   1,C   0,N   4)          112.40 -0.001635   -0.10    112.31   
    14. A(H   6,C   0,H   7)          107.47  0.001028   -0.30    107.17   
    15. A(C   1,C   0,H   6)          108.01  0.004131   -0.97    107.03   
    16. A(N   4,C   0,H   6)          109.23 -0.001828    0.39    109.62   
    17. A(C   0,C   1,O   9)          124.56  0.000427    0.09    124.65   
    18. A(C   0,C   1,O   5)          112.84  0.006421   -1.10    111.74   
    19. A(O   5,C   1,O   9)          122.55 -0.006783    0.93    123.48   
    20. A(C   0,N   4,H   3)          110.44 -0.000336   -0.36    110.08   
    21. A(C   0,N   4,H   2)          110.41  0.000730   -0.28    110.13   
    22. A(H   2,N   4,H   3)          108.56  0.001457   -0.61    107.96   
    23. A(C   1,O   5,H   8)          110.08  0.012495   -1.90    108.18   
    24. D(O   5,C   1,C   0,N   4)     31.75 -0.001139    1.71     33.46   
    25. D(O   9,C   1,C   0,N   4)   -151.04  0.000161    0.08   -150.96   
    26. D(O   9,C   1,C   0,H   6)    -30.47 -0.000364   -0.15    -30.61   
    27. D(O   5,C   1,C   0,H   6)    152.32 -0.001663    1.48    153.80   
    28. D(O   5,C   1,C   0,H   7)    -93.14  0.001660    0.79    -92.35   
    29. D(H   2,N   4,C   0,H   6)     68.02 -0.001606   -0.21     67.81   
    30. D(H   2,N   4,C   0,C   1)   -172.12  0.001303   -1.23   -173.35   
    31. D(H   3,N   4,C   0,H   6)   -171.90  0.000465   -1.38   -173.28   
    32. D(H   3,N   4,C   0,C   1)    -52.04  0.003375   -2.40    -54.44   
    33. D(H   2,N   4,C   0,H   7)    -52.36 -0.000405   -0.58    -52.94   
    34. D(H   8,O   5,C   1,O   9)      2.44 -0.000286    0.16      2.60   
    35. D(H   8,O   5,C   1,C   0)    179.71  0.001204   -1.46    178.26   
    ----------------------------------------------------------------------------

Geometry step timings:
Preparation and reading OPT file:      0.000 s ( 2.208 %)
Internal coordinates            :      0.000 s ( 1.987 %)
B/P matrices and projection     :      0.000 s (32.671 %)
Hessian update/contruction      :      0.000 s (13.024 %)
Making the step                 :      0.000 s (22.517 %)
Converting the step to Cartesian:      0.000 s ( 4.857 %)
Storing new data                :      0.000 s ( 2.428 %)
Checking convergence            :      0.000 s ( 2.649 %)
Final printing                  :      0.000 s (17.660 %)
Total time                      :      0.000 s

Time for energy+gradient        :      8.261 s
Time for complete geometry iter :      8.272 s

         *************************************************************
         *                GEOMETRY OPTIMIZATION CYCLE   2            *
         *************************************************************
---------------------------------
CARTESIAN COORDINATES (ANGSTROEM)
---------------------------------
  C     -4.932363   -1.273934   -0.157787
  C     -4.378307   -2.439794    0.629059
  H     -5.910761    0.487513    0.149224
  H     -6.133509   -0.605644    1.346123
  N     -5.451900   -0.222977    0.704225
  O     -5.064429   -2.640693    1.775393
  H     -4.117278   -0.881118   -0.762121
  H     -5.668281   -1.712838   -0.850173
  H     -4.686205   -3.412344    2.222800
  O     -3.481256   -3.167856    0.247484

----------------------------
CARTESIAN COORDINATES (A.U.)
----------------------------
  NO LB      ZA    FRAG     MASS         X           Y           Z
   0 C     6.0000    0    12.011   -9.320816   -2.407386   -0.298174
   1 C     6.0000    0    12.011   -8.273801   -4.610542    1.188750
   2 H     1.0000    0     1.008  -11.169719    0.921265    0.281993
   3 H     1.0000    0     1.008  -11.590652   -1.144501    2.543804
   4 N     7.0000    0    14.007  -10.302597   -0.421365    1.330792
   5 O     8.0000    0    15.999   -9.570383   -4.990186    3.355007
   6 H     1.0000    0     1.008   -7.780528   -1.665072   -1.440200
   7 H     1.0000    0     1.008  -10.711498   -3.236795   -1.606593
   8 H     1.0000    0     1.008   -8.855645   -6.448395    4.200483
   9 O     8.0000    0    15.999   -6.578621   -5.986381    0.467678

--------------------------------
INTERNAL COORDINATES (ANGSTROEM)
--------------------------------
 C      0   0   0     0.000000000000     0.00000000     0.00000000
 C      1   0   0     1.511732292667     0.00000000     0.00000000
 H      1   2   0     2.038188095836   139.82051197     0.00000000
 H      3   1   2     1.636207110588    66.30593011   335.84540804
 N      4   3   1     1.011463628150    36.02736529    39.24484500
 O      2   1   3     1.351001558257   111.72733358    28.65880923
 H      1   2   3     1.088066360433   107.03536115   125.14345882
 H      1   2   3     1.101639355647   105.34960095   238.98738838
 H      6   2   1     0.968849981532   108.18032767   178.25072349
 O      2   1   3     1.216706274201   124.64316100   204.24645338

---------------------------
INTERNAL COORDINATES (A.U.)
---------------------------
 C      0   0   0     0.000000000000     0.00000000     0.00000000
 C      1   0   0     2.856760020945     0.00000000     0.00000000
 H      1   2   0     3.851617310548   139.82051197     0.00000000
 H      3   1   2     3.091983337385    66.30593011   335.84540804
 N      4   3   1     1.911389251626    36.02736529    39.24484500
 O      2   1   3     2.553022951606   111.72733358    28.65880923
 H      1   2   3     2.056147436751   107.03536115   125.14345882
 H      1   2   3     2.081796680522   105.34960095   238.98738838
 H      6   2   1     1.830861129951   108.18032767   178.25072349
 O      2   1   3     2.299241643664   124.64316100   204.24645338

------------------------------------------------------------------------------
                   ___                                                        
                  /   \      - P O W E R E D   B Y -                         
                 /     \                                                     
                 |  |  |   _    _      __       _____    __    __             
                 |  |  |  | |  | |    /  \     |  _  \  |  |  /  |          
                  \  \/   | |  | |   /    \    | | | |  |  | /  /          
                 / \  \   | |__| |  /  /\  \   | |_| |  |  |/  /          
                |  |  |   |  __  | /  /__\  \  |    /   |      \           
                |  |  |   | |  | | |   __   |  |    \   |  |\   \          
                \     /   | |  | | |  |  |  |  | |\  \  |  | \   \       
                 \___/    |_|  |_| |__|  |__|  |_| \__\ |__|  \__/        
                                                                              
                      - O R C A' S   B I G   F R I E N D -                    
                                      &                                       
                       - I N T E G R A L  F E E D E R -                       
                                                                              
 v1 FN, 2020, v2 2021, v3 2022-2024                                           
------------------------------------------------------------------------------


----------------------
SHARK INTEGRAL PACKAGE
----------------------

Number of atoms                             ...     10
Number of basis functions                   ...     95
Number of shells                            ...     45
Maximum angular momentum                    ...      2
Integral batch strategy                     ... SHARK/LIBINT Hybrid
RI-J (if used) integral strategy            ... SPLIT-RIJ (Revised 2003 algorithm where possible)
Printlevel                                  ...      1
Contraction scheme used                     ... SEGMENTED contraction
Prescreening option                         ... SCHWARTZ
   Thresh                                   ... 2.500e-11
   Tcut                                     ... 2.500e-12
   Tpresel                                  ... 2.500e-12 
Coulomb Range Separation                    ... NOT USED
Exchange Range Separation                   ... NOT USED
Multipole approximations                    ... NOT USED
Finite Nucleus Model                        ... NOT USED
CABS basis                                  ... NOT available
Auxiliary Coulomb fitting basis             ... NOT available
Auxiliary J/K fitting basis                 ... NOT available
Auxiliary Correlation fitting basis         ... NOT available
Auxiliary 'external' fitting basis          ... NOT available

[...]
  4 N      7.6925     7.0000    -0.6925     2.9242     2.6033     0.3209
  5 O      8.6286     8.0000    -0.6286     2.0875     1.7271     0.3604
  6 H      0.8315     1.0000     0.1685     0.9486     0.9039     0.0447
  7 H      0.8682     1.0000     0.1318     0.9489     0.9005     0.0483
  8 H      0.6290     1.0000     0.3710     0.8782     0.8337     0.0445
  9 O      8.5626     8.0000    -0.5626     2.1685     1.7654     0.4031

  Mayer bond orders larger than 0.100000
B(  0-C ,  1-C ) :   0.8902 B(  0-C ,  4-N ) :   0.8966 B(  0-C ,  6-H ) :   0.9286 
B(  0-C ,  7-H ) :   0.9123 B(  1-C ,  5-O ) :   0.9146 B(  1-C ,  9-O ) :   1.7092 
B(  2-H ,  4-N ) :   0.8712 B(  3-H ,  4-N ) :   0.8594 B(  5-O ,  8-H ) :   0.8053 



                *******************************************
                * RELAXED MP2 DENSITY POPULATION ANALYSIS *
                *******************************************

------------------------------------------------------------------------------
                           ORCA POPULATION ANALYSIS
------------------------------------------------------------------------------
Input electron density              ... 4.pmp2re
BaseName (.gbw .S,...)              ... 4

                    ********************************
                    * MULLIKEN POPULATION ANALYSIS *
                    ********************************

-----------------------
MULLIKEN ATOMIC CHARGES
-----------------------
   0 C :   -0.142366
   1 C :    0.590442
   2 H :    0.258951
   3 H :    0.268911
   4 N :   -0.632616
   5 O :   -0.531833
   6 H :    0.153492
   7 H :    0.121711
   8 H :    0.345019
   9 O :   -0.431711
Sum of atomic charges:    0.0000000

--------------------------------
MULLIKEN REDUCED ORBITAL CHARGES
--------------------------------
  0 C s       :     3.192779  s :     3.192779
      pz      :     0.957815  p :     2.877962
      px      :     1.045789
      py      :     0.874358
      dz2     :     0.007413  d :     0.071625
      dxz     :     0.017738
      dyz     :     0.019775
      dx2y2   :     0.011155
      dxy     :     0.015544
  1 C s       :     2.969935  s :     2.969935
      pz      :     0.734830  p :     2.297197
      px      :     0.738728
      py      :     0.823639
      dz2     :     0.025993  d :     0.142425
      dxz     :     0.039851
      dyz     :     0.019901
      dx2y2   :     0.028088
      dxy     :     0.028591
  2 H s       :     0.713992  s :     0.713992
      pz      :     0.007927  p :     0.027057
      px      :     0.007901
      py      :     0.011228
  3 H s       :     0.703988  s :     0.703988
      pz      :     0.010378  p :     0.027101
      px      :     0.010678
      py      :     0.006044
  4 N s       :     3.609161  s :     3.609161
      pz      :     1.297741  p :     3.969876
      px      :     1.499291
      py      :     1.172844
      dz2     :     0.006431  d :     0.053579
      dxz     :     0.012127
      dyz     :     0.014688
      dx2y2   :     0.009367
      dxy     :     0.010968
  5 O s       :     3.824177  s :     3.824177
      pz      :     1.448164  p :     4.660326
      px      :     1.651319
      py      :     1.560843
      dz2     :     0.008838  d :     0.047330
      dxz     :     0.012257
      dyz     :     0.007854
      dx2y2   :     0.007978
      dxy     :     0.010403
  6 H s       :     0.832414  s :     0.832414
      pz      :     0.004961  p :     0.014094
      px      :     0.006134
      py      :     0.002999
  7 H s       :     0.863915  s :     0.863915
      pz      :     0.004824  p :     0.014375
      px      :     0.005799
      py      :     0.003752
  8 H s       :     0.614124  s :     0.614124
      pz      :     0.011570  p :     0.040857
      px      :     0.011591
      py      :     0.017697
  9 O s       :     3.856447  s :     3.856447
      pz      :     1.635955  p :     4.524346
      px      :     1.373001
      py      :     1.515390
      dz2     :     0.007566  d :     0.050918
      dxz     :     0.010535
      dyz     :     0.007467
      dx2y2   :     0.013762
      dxy     :     0.011589


                     *******************************
                     * LOEWDIN POPULATION ANALYSIS *
                     *******************************

----------------------
LOEWDIN ATOMIC CHARGES
----------------------
   0 C :   -0.082973
   1 C :    0.161661
   2 H :    0.128357
   3 H :    0.130823
   4 N :   -0.279663
   5 O :   -0.182840
   6 H :    0.086723
   7 H :    0.066320
   8 H :    0.188879
   9 O :   -0.217285

-------------------------------
LOEWDIN REDUCED ORBITAL CHARGES
-------------------------------
  0 C s       :     2.889278  s :     2.889278
      pz      :     1.022835  p :     3.061547
      px      :     1.065213
      py      :     0.973499
      dz2     :     0.011244  d :     0.132148
      dxz     :     0.031944
      dyz     :     0.040126
      dx2y2   :     0.019614
      dxy     :     0.029219
  1 C s       :     2.852378  s :     2.852378
      pz      :     0.854922  p :     2.679914
      px      :     0.918582
      py      :     0.906411
      dz2     :     0.055223  d :     0.306047
      dxz     :     0.092295
      dyz     :     0.039048
      dx2y2   :     0.057408
      dxy     :     0.062072
  2 H s       :     0.787727  s :     0.787727
      pz      :     0.025308  p :     0.083916
      px      :     0.024521
      py      :     0.034087
  3 H s       :     0.784361  s :     0.784361
      pz      :     0.030823  p :     0.084816
      px      :     0.036595
      py      :     0.017399
  4 N s       :     3.199337  s :     3.199337
      pz      :     1.313819  p :     3.998618
      px      :     1.483190
      py      :     1.201610
      dz2     :     0.008623  d :     0.081708
      dxz     :     0.018063
      dyz     :     0.025376
      dx2y2   :     0.013728
      dxy     :     0.015918
  5 O s       :     3.481569  s :     3.481569
      pz      :     1.451062  p :     4.629980
      px      :     1.643817
      py      :     1.535101
      dz2     :     0.013544  d :     0.071291
      dxz     :     0.020439
      dyz     :     0.014064
      dx2y2   :     0.009902
      dxy     :     0.013342
  6 H s       :     0.869175  s :     0.869175
      pz      :     0.015665  p :     0.044102
      px      :     0.019372
      py      :     0.009065
  7 H s       :     0.889493  s :     0.889493
      pz      :     0.015053  p :     0.044186
      px      :     0.017949
      py      :     0.011184
  8 H s       :     0.690424  s :     0.690424
      pz      :     0.032816  p :     0.120698
      px      :     0.034957
      py      :     0.052925
  9 O s       :     3.559820  s :     3.559820
      pz      :     1.618825  p :     4.578677
      px      :     1.433206
      py      :     1.526646
      dz2     :     0.011774  d :     0.078789
      dxz     :     0.015710
      dyz     :     0.009347
      dx2y2   :     0.019383
      dxy     :     0.022574


                      *****************************
                      * MAYER POPULATION ANALYSIS *
                      *****************************

  NA   - Mulliken gross atomic population
  ZA   - Total nuclear charge
  QA   - Mulliken gross atomic charge
  VA   - Mayer's total valence
  BVA  - Mayer's bonded valence
  FA   - Mayer's free valence

  ATOM       NA         ZA         QA         VA         BVA        FA
  0 C      6.1424     6.0000    -0.1424     3.8997     3.6455     0.2542
  1 C      5.4096     6.0000     0.5904     3.9754     3.7021     0.2734
  2 H      0.7410     1.0000     0.2590     0.9160     0.8711     0.0449
  3 H      0.7311     1.0000     0.2689     0.9169     0.8727     0.0442
  4 N      7.6326     7.0000    -0.6326     2.9802     2.6629     0.3173
  5 O      8.5318     8.0000    -0.5318     2.2017     1.8503     0.3514
  6 H      0.8465     1.0000     0.1535     0.9544     0.9096     0.0448
  7 H      0.8783     1.0000     0.1217     0.9501     0.9019     0.0482
  8 H      0.6550     1.0000     0.3450     0.9004     0.8571     0.0433
  9 O      8.4317     8.0000    -0.4317     2.3267     1.9397     0.3870

  Mayer bond orders larger than 0.100000
B(  0-C ,  1-C ) :   0.8987 B(  0-C ,  4-N ) :   0.9287 B(  0-C ,  6-H ) :   0.9236 
B(  0-C ,  7-H ) :   0.9025 B(  1-C ,  5-O ) :   0.9905 B(  1-C ,  9-O ) :   1.8312 
B(  2-H ,  4-N ) :   0.8741 B(  3-H ,  4-N ) :   0.8643 B(  5-O ,  8-H ) :   0.8125 



----------------------------------
MP2 DERIVATIVE INTEGRAL GENERATION
----------------------------------

Input SCF Electron Density              ... 4.scfp
Input Correlated Electron Density       ... 4.pmp2re
Input Energy Weighted Density           ... 4.wmp2.tmp
Input Wavefunction Amplitudes           ... 4.mp2tsaa.tmp

Nuclear repulsion gradient              ... done (  0.0 sec)
HCore & Overlap gradient  (SHARK)       ... done (  0.0 sec)
Analytic two-electron gradient terms    ... 
  Batch handling in the gradient evaluation:
  General contraction                   ... not used
  Memory available                      ... 4090.9 MB
  Memory per occupied orbital in Q2     ...    1.0 MB
  Memory per occupied orbital in Q3     ...    0.0 MB
  Total memory requirement per |i>      ...    1.1 MB
  Number of orbitals treated per batch  ...     15
  Number of batches to be done          ...      1
done (  1.6 sec)

---------------------------------------
MP2 TOTAL ENERGY:     -283.631329147 Eh
---------------------------------------

The final MP2 gradient
  0:   0.00007575  -0.00006284   0.00001547
  1:  -0.00008251   0.00006256  -0.00003124
  2:   0.00001313  -0.00000007   0.00000729
  3:   0.00001428   0.00000704   0.00000445
  4:  -0.00004453   0.00001319  -0.00000651
  5:  -0.00003307   0.00000404   0.00002707
  6:  -0.00003351   0.00003590  -0.00001274
  7:   0.00000188   0.00000174   0.00000527
  8:   0.00001195  -0.00000331  -0.00000760
  9:   0.00007663  -0.00005827  -0.00000146

-----------------------------------
NORM OF THE MP2 GRADIENT:  0.000196
-----------------------------------

Maximum memory used throughout the entire MP2-calculation: 63.4 MB

-------------------------   --------------------
FINAL SINGLE POINT ENERGY      -283.631329147199
-------------------------   --------------------

                                *** OPTIMIZATION RUN DONE ***


------------------------------------------------------------------------------
                              ORCA PROPERTY CALCULATIONS
------------------------------------------------------------------------------

GBWName                                 ... 4.gbw
Number of atoms                         ...     10
Number of basis functions               ...     95
Max core memory                         ...   4096 MB

Electric properties:
Dipole moment                           ... YES
Quadrupole moment                       ...  NO
Static polarizability (Dipole/Dipole)   ...  NO
Static polarizability (Dipole/Quad.)    ...  NO
Static polarizability (Quad./Quad.)     ...  NO
Static polarizability (Velocity)        ...  NO
Static hyperpolarizability              ...  NO

Atomic electric properties:
Dipole moment                           ...  NO
Quadrupole moment                       ...  NO
Static polarizability                   ...  NO

Choice of electric origin               ... Center of mass
Position of electric origin             ...    -8.824166    -3.680437     1.284965

General magnetic properties:
Magnetizability                         ...  NO

EPR properties:
g-Tensor (aka g-matrix)                 ...  NO
Zero-Field splitting spin-orbit         ...  NO
Zero-field splitting spin-spin          ...  NO
Hyperfine couplings                     ...  NO (   0 nuclei)
Quadrupole couplings                    ...  NO (   0 nuclei)
Contact density                         ...  NO (   0 nuclei)

NMR properties:
Chemical shifts                         ...  NO (   0 nuclei)
Spin-rotation constants                 ...  NO (   0 nuclei)
Spin-spin couplings                     ...  NO (   0 nuclei,    0 pairs)

Choice of magnetic origin               ... GIAO
Position of magnetic origin             ...     0.000000     0.000000     0.000000

Properties with geometric perturbations:
SCF Hessian                             ...  NO
IR spectrum                             ...  NO
VCD spectrum                            ...  NO
X-ray spectroscopy properties:
SCF XES/XAS/RIXS spectra                ...  NO

SCF SOC stabilization energy            ...  NO
Diagonal Born-Oppenheimer correction    ...  NO

-------------
DIPOLE MOMENT
-------------

Method             : SCF
Type of density    : Electron Density
Multiplicity       :   1
Irrep              :   0
Energy             :  -282.8379450556114989 Eh
Basis              : AO
                                X                 Y                 Z
Electronic contribution:      1.937809487      -3.131442263       1.177664381
Nuclear contribution   :     -3.033165835       3.334251917      -1.270451844
                        -----------------------------------------
Total Dipole Moment    :     -1.095356348       0.202809653      -0.092787463
                        -----------------------------------------
Magnitude (a.u.)       :      1.117831292
Magnitude (Debye)      :      2.841301343



--------------------
Rotational spectrum 
--------------------
 
Rotational constants in cm-1:             0.318183             0.135785             0.102417 
Rotational constants in MHz :          9538.885910          4070.732243          3070.397923 

Dipole components along the rotational axes: 
x,y,z [a.u.] :    -0.736894    -0.463828    -0.700998 
x,y,z [Debye]:    -1.873035    -1.178957    -1.781795 

 

-------------
DIPOLE MOMENT
-------------

Method             : MP2
Type of density    : Electron Density
Multiplicity       :   1
Level              : Unrelaxed density
Irrep              :   0
Energy             :     0.0000000000000000 Eh
Basis              : AO
                                X                 Y                 Z
Electronic contribution:      1.966808961      -3.151105632       1.182123223
Nuclear contribution   :     -3.033165835       3.334251917      -1.270451844
                        -----------------------------------------
Total Dipole Moment    :     -1.066356874       0.183146284      -0.088328621
                        -----------------------------------------
Magnitude (a.u.)       :      1.085569662
Magnitude (Debye)      :      2.759298795



--------------------
Rotational spectrum 
--------------------
 
Rotational constants in cm-1:             0.318183             0.135785             0.102417 
Rotational constants in MHz :          9538.885910          4070.732243          3070.397923 

Dipole components along the rotational axes: 
x,y,z [a.u.] :    -0.704928    -0.456194    -0.688059 
x,y,z [Debye]:    -1.791785    -1.159554    -1.748906 

 

-------------
DIPOLE MOMENT
-------------

Method             : MP2
Type of density    : Electron Density
Multiplicity       :   1
Level              : Relaxed density
Irrep              :   0
Energy             :     0.0000000000000000 Eh
Basis              : AO
                                X                 Y                 Z
Electronic contribution:      2.090241197      -3.247872393       1.212883192
Nuclear contribution   :     -3.033165835       3.334251917      -1.270451844
                        -----------------------------------------
Total Dipole Moment    :     -0.942924638       0.086379524      -0.057568652
                        -----------------------------------------
Magnitude (a.u.)       :      0.948621339
Magnitude (Debye)      :      2.411203822



--------------------
Rotational spectrum 
--------------------
 
Rotational constants in cm-1:             0.318183             0.135785             0.102417 
Rotational constants in MHz :          9538.885910          4070.732243          3070.397923 

Dipole components along the rotational axes: 
x,y,z [a.u.] :    -0.556403    -0.436114    -0.632537 
x,y,z [Debye]:    -1.414265    -1.108513    -1.607780 

 

Dipole moment calculation done in   0.0 sec 

Maximum memory used throughout the entire PROP-calculation: 4.2 MB

--------------------------------
SUGGESTED CITATIONS FOR THIS RUN
--------------------------------

Below you find a list of papers that are relevant to this ORCA run
We neither can nor want to force you to cite these papers, but we appreciate if you do
You receive ORCA, which is the product of decades of hard work by many enthusiastic individuals, for free
The only thing we kindly ask in return is that you cite our papers,
We deeply appreciate it, if you show your appreciation for ORCA by not just citing the generic ORCA reference.

Please note that relegating all ORCA citations to the supporting information does *not* help us.
SI sections are not indexed - citations you put there will not count into any citation statistics
But we need these citations in order to attract the funding resources that allow us to do what we are doing

Therefore, if you are a happy ORCA user, please consider citing a few of the papers listed below in the main body of your paper

In addition to the list printed below, the program has created the file 4.bibtex that contains the list in bibtex format
You can import this file easily into all common literature databanks and citation aid programs


List of essential papers. We consider these as the minimum necessary citations

  1. Neese, F.
     Software update: the ORCA program system, version 6.0
     WIRES Comput. Molec. Sci. 2025 15(1), e70019
     doi.org/10.1002/wcms.7019

List of papers to cite with high priority. The work reported in these papers was absolutely
necessary for this run to complete.
Our perspective: the developers of density functionals and basis sets usually get cited in chemistry papers
Good! But without the algorithms to do something with them, the functionals or basis sets would not do anything.
Hence, in our opinion, the algorithm design and method developments papers are equally worthy of getting cited

  1. Neese, F.
     The SHARK Integral Generation and Digestion System
     J. Comp. Chem. 2022 44(3), 381
     doi.org/10.1002/jcc.26942

List of suggested additional citations. These are papers that are important in the 'surrounding' of 
of this run, or papers that preceded the highly important papers. If you like your results we are grateful for a citation.

  1. Neese, F.
     The ORCA program system
     WIRES Comput. Molec. Sci. 2012 2(1), 73-78
     doi.org/10.1002/wcms.81
  2. Neese, F.
     Software update: the ORCA program system, version 4.0
     WIRES Comput. Molec. Sci. 2018 8(1), 1-6
     doi.org/10.1002/wcms.1327
  3. Neese, F.; Wennmohs, F.; Becker, U.; Riplinger, C.
     The ORCA quantum chemistry program package
     J. Chem. Phys. 2020 152(22), 224108
     doi.org/10.1063/5.0004608
  4. Neese, F.
     Software update: The ORCA program system—Version 5.0
     WIRES Comput. Molec. Sci. 2022 12(1), e1606
     doi.org/10.1002/wcms.1606

List of optional additional citations

  1. Neese, F.
     Approximate second-order SCF convergence for spin unrestricted wavefunctions
     Chem. Phys. Lett. 2000 325(1-3), 93-98
     doi.org/10.1016/s0009-2614(00)00662-x

Timings for individual modules:

Sum of individual times          ...       74.265 sec (=   1.238 min)
Startup calculation              ...        1.781 sec (=   0.030 min)   2.4 %
SCF iterations                   ...       21.282 sec (=   0.355 min)  28.7 %
Property calculations            ...        0.030 sec (=   0.001 min)   0.0 %
MP2 module                       ...       51.155 sec (=   0.853 min)  68.9 %
Geometry relaxation              ...        0.017 sec (=   0.000 min)   0.0 %
                             ****ORCA TERMINATED NORMALLY****
TOTAL RUN TIME: 0 days 0 hours 1 minutes 14 seconds 464 msec
