
                                 *****************
                                 * O   R   C   A *
                                 *****************

                                            #,                                       
                                            ###                                      
                                            ####                                     
                                            #####                                    
                                            ######                                   
                                           ########,                                 
                                     ,,################,,,,,                         
                               ,,#################################,,                 
                          ,,##########################################,,             
                       ,#########################################, ''#####,          
                    ,#############################################,,   '####,        
                  ,##################################################,,,,####,       
                ,###########''''           ''''###############################       
              ,#####''   ,,,,##########,,,,          '''####'''          '####       
            ,##' ,,,,###########################,,,                        '##       
           ' ,,###''''                  '''############,,,                           
         ,,##''                                '''############,,,,        ,,,,,,###''
      ,#''                                            '''#######################'''  
     '                                                          ''''####''''         
             ,#######,   #######,   ,#######,      ##                                
            ,#'     '#,  ##    ##  ,#'     '#,    #''#        ,####,    ,#,          
            ##       ##  ##   ,#'  ##            #'  '#       #'       ,# #          
            ##       ##  #######   ##           ,######,      #####,      #          
            '#,     ,#'  ##    ##  '#,     ,#' ,#      #,     #,   #      #          
             '#######'   ##     ##  '#######'  #'      '#     '####' #    #          



                #########################################################
                #                        -***-                          #
                #          Department of theory and spectroscopy        #
                #                                                       #
                #                      Frank Neese                      #
                #                                                       #
                #     Directorship, Architecture, Infrastructure        #
                #                    SHARK, DRIVERS                     #
                #        Core code/Algorithms in most modules           #
                #                                                       #
                #        Max Planck Institute fuer Kohlenforschung      #
                #                Kaiser Wilhelm Platz 1                 #
                #                 D-45470 Muelheim/Ruhr                 #
                #                      Germany                          #
                #                                                       #
                #                  All rights reserved                  #
                #                        -***-                          #
                #########################################################


                         Program Version 6.1.0  -  RELEASE   -
                                (GIT: $679e74b$)
                          ($2025-06-10 18:02:51 +0200$)


 With contributions from (in alphabetic order):
[Max-Planck-Institut fuer Kohlenforschung]                               
  Daniel Aravena         : Magnetic Suceptibility                        
  Michael Atanasov       : Ab Initio Ligand Field Theory (pilot matlab implementation)
  Alexander A. Auer      : GIAO ZORA, VPT2 properties, NMR spectrum      
  Ute Becker             : All parallelization in ORCA, NUMFREQ, NUMCALC 
  Giovanni Bistoni       : ED, misc. LED, open-shell LED, HFLD           
  Dmytro Bykov           : pre 5.0 version of the SCF Hessian            
  Marcos Casanova-Páez   : Triplet and SCS-CIS(D). UHF-(DLPNO)-IP/EA/STEOM-CCSD. UHF-CVS-IP/STEOM-CCSD   
  Vijay G. Chilkuri      : MRCI spin determinant printing, contributions to CSF-ICE 
  Pauline Colinet        : FMM embedding                                 
  Dipayan Datta          : RHF DLPNO-CCSD density                        
  Achintya Kumar Dutta   : EOM-CC, STEOM-CC                              
  Nicolas Foglia         : Exact transition moments, OPA infrastructure, MCD improvements    
  Dmitry Ganyushin       : Spin-Orbit,Spin-Spin,Magnetic field MRCI      
  Miquel Garcia-Rates    : C-PCM and meta-GGA Hessian, CCSD/C-PCM, Gaussian charge scheme 
  Tiago L. C. Gouveia    : GS-ROHF, GS-ROCIS                             
  Yang Guo               : DLPNO-NEVPT2, F12-NEVPT2, CIM, IAO-localization        
  Andreas Hansen         : Spin unrestricted coupled pair/coupled cluster methods 
  Ingolf Harden          : AUTO-CI MPn and infrastructure                
  Benjamin Helmich-Paris : MC-RPA, TRAH-(SCF,CASSCF), AVAS, COSX integrals, SCF dyn. polar., MC-PDFT, srDFT 
  Lee Huntington         : MR-EOM, pCC                                   
  Robert Izsak           : Overlap fitted RIJCOSX, COSX-SCS-MP3, EOM     
  Riya Kayal             : Wick's Theorem for AUTO-CI, AUTO-CI UHF-CCSDT 
  Emily Kempfer          : AUTO-CI RHF CISDT and CCSDT, approximate NEVPT4
  Christian Kollmar      : KDIIS, OOCD, Brueckner-CCSD(T), CCSD density, CASPT2, CASPT2-K, improved NEVPT2 
  Axel Koslowski         : Symmetry handling                             
  Simone Kossmann        : meta-GGA functionals, TD-DFT gradient, OOMP2, (MP2 Hessian; deprecated post 5.0) 
  Lucas Lang             : DCDCAS, Hyperfine gauge corrections, ICE-SOC+SSC
  Marvin Lechner         : AUTO-CI (C++ implementation), FIC-MRCC        
  Spencer Leger          : CASSCF response                               
  Dagmar Lenk            : GEPOL surface, SMD, ORCA-2-JSON               
  Dimitrios Liakos       : Extrapolation schemes; Compound Job, Property file
  Dimitrios Manganas     : Further ROCIS development; embedding schemes. LFT, Crystal Embedding 
  Dimitrios Pantazis     : SARC Basis sets                               
  Anastasios Papadopoulos: AUTO-CI, single reference methods and gradients 
  Taras Petrenko         : pre 6.0 DFT Hessian and TD-DFT gradient,  ECA, NRVS 
  Petra Pikulova         : Analytic Raman intensities                    
  Peter Pinski           : DLPNO-MP2, DLPNO-MP2 Gradient                 
  Shashank Vittal Rao    : ES-AILFT, MagRelax                            
  Christoph Reimann      : Effective Core Potentials                     
  Marius Retegan         : Local ZFS, SOC                                
  Christoph Riplinger    : Optimizer, TS searches, QM/MM, DLPNO-CCSD(T), (RO)-DLPNO pert. Triples 
  Michael Roemelt        : Original ROCIS implementation, recursive CI coupling coefficients
  Masaaki Saitow         : Open-shell DLPNO-CCSD energy and density      
  Barbara Sandhoefer     : DKH picture change effects                    
  Yorick L. A. Schmerwitz: GMF and freeze-and-release deltaSCF, NEB S-IDPP initial path                    
  Kantharuban Sivalingam : CASSCF convergence/infrastructure, NEVPT2, NEVPT3, NEVPT4(SD), FIC-MRCI and CEPA variants
  Bernardo de Souza      : ESD, SOC TD-DFT                               
  Georgi L. Stoychev     : AutoAux, RI-MP2 NMR, DLPNO-MP2 response, X2C  
  Van Anh Tran           : RI-MP2 g-tensors                              
  Willem Van den Heuvel  : Paramagnetic NMR                              
  Zikuan Wang            : NOTCH, Electric field optimization            
  Frank Wennmohs         : Technical directorship and infrastructure     
  Hang Xu                : AUTO-CI-Response properties                   
                                                                         
[FACCTs GmbH]                                                            
  Markus Bursch, Nicolas Foglia, Miquel Garcia-Rates, Ingolf Harden, Hagen Neugebauer, Anastasios Papadopoulos, 
  Christoph Riplinger, Bernardo de Souza, Georgi L. Stoychev                                                    
                                                                 
  APM, various basis sets, CI-OPT, improved COSX, DLPNO-Multilevel,           
  DOCKER, DRACO, updates on ESD, Fragmentator, GOAT, IRC, LR-CPCM, L-BFGS, MBIS, meta-GGA TD-DFT gradient, ML-optimized integration grids, 
  MM, NACMEs, nearIR, NEB, NEB-TS, NL-DFT gradient (VV10), 2- and 3-layer-ONIOM, interface openCOSMO-RS, QMMM,   
  Crystal-QMMM, RESP, rigid body optimization, SF, symmetry and pop. for TD-DFT, various functionals, SOLVATOR                                   
                                                                         
[Other institutions]                                                     
  V. Asgeirsson          : NEB                                           
  Christoph Bannwarth    : sTDA-DFT, sTD-DFT, PBEh-3c, B97-3c, D3        
  Giovanni Bistoni       : ETS/NOCV, ADLD/ADEX, COVALED                  
  Martin Brehm           : Molecular dynamics                            
  Ronald Cardenas        : ETS/NOCV                                      
  Martina Colucci        : COVALED                                       
  Sebastian Ehlert       : rSCAN, r2SCAN, r2SCAN-3c, D4, dhf basis sets  
  Marvin Friede          : D4 for Fr, Ra, Ac-Lr                          
  Lars Goerigk           : TD-DFT with DH, B97 family of functionals     
  Stefan Grimme          : VdW corrections, initial TS optimization, DFT functionals, gCP, sTDA/sTD-DF 
  Waldemar Hujo          : DFT-NL                                        
  H. Jonsson             : NEB                                           
  Holger Kruse           : gCP                                           
  Marcel Mueller         : wB97X-3c, vDZP basis set                      
  Hagen Neugebauer       : wr2SCAN, Native XTB                           
  Gianluca Regni         : ADLD/ADEX                                     
  Tobias Risthaus        : pre 6.0 range-separated hybrid DFT and stability analysis
  Lukas Wittmann         : regularized MP2, r2SCAN double-hybrids, wr2SCAN        
                                                                         
We gratefully acknowledge several colleagues who have allowed us to      
interface, adapt or use parts of their codes:                            
  Ed Valeev, F. Pavosevic, A. Kumar             : LibInt (2-el integral package), F12 methods 
  Garnet Chan, S. Sharma, J. Yang, R. Olivares  : DMRG                   
  Ulf Ekstrom                                   : XCFun DFT Library      
  Mihaly Kallay                                 : mrcc  (arbitrary order and MRCC methods)
  Frank Weinhold                                : gennbo (NPA and NBO analysis)           
  Simon Mueller                                 : openCOSMO-RS                            
  Christopher J. Cramer and Donald G. Truhlar   : smd solvation model                     
  S Lehtola, MJT Oliveira, MAL Marques          : LibXC Library                           
  Liviu Ungur et al                             : ANISO software                          


 Your calculation uses the libint2 library for the computation of 2-el integrals
 For citations please refer to: http://libint.valeyev.net

 Your ORCA version has been built with support for libXC version: 7.0.0
 For citations please refer to: https://libxc.gitlab.io

 This ORCA versions uses:
   CBLAS   interface :  Fast vector & matrix operations
   LAPACKE interface :  Fast linear algebra routines
   SCALAPACK package :  Parallel linear algebra routines
   Shared memory     :  Shared parallel matrices
   BLAS/LAPACK       :  OpenBLAS 0.3.29  USE64BITINT DYNAMIC_ARCH NO_AFFINITY Haswell SINGLE_THREADED
        Core in use  :  Haswell
   Copyright (c) 2011-2014, The OpenBLAS Project


  ***********************************
  * Starting time: Mon Aug 11 13:52:12 2025
  * Host name:     chemlab03
  * Process ID:    2309335
  * Working dir.:  /home/test/Desktop/Aishani MM/attachments
  ***********************************



***************************************
The coordinates will be read from file: t.xyz
***************************************


Your calculation utilizes the semiempirical GFN2-xTB method
Please cite in your paper:
Bannwarth, C.; Ehlert S.; Grimme, S. J. Chem. Theory Comput. 2019, 15, 1652.
   

================================================================================

================================================================================
                                        WARNINGS
                       Please study these warnings very carefully!
================================================================================


================================================================================
 STARTING AUTOMATIC FRAGMENTATION: 
================================================================================

WARNING: Geometry Optimization
  ===> : Switching off AutoStart
         For restart on a previous wavefunction, please use MOREAD

WARNING: Found dipole moment calculation with XTB calculation
  ===> : Switching off dipole moment calculation


================================================================================
                                       INPUT FILE
================================================================================
NAME = t.inp
|  1> ! xtb goat
|  2> 
|  3> * xyzfile 0 1 t.xyz
|  4> 
|  5>                          ****END OF INPUT****
================================================================================

                       *****************************
                       * Geometry Optimization Run *
                       *****************************


                       *********************************
                       *              GOAT             *
                       * Global Optimization Algorithm *
                       *********************************

Geometry optimization settings:
Update method            Update   .... BFGS
Choice of coordinates    CoordSys .... (2022) Redundant Internals
Initial Hessian          InHess   .... Almloef's Model
Max. no of cycles        MaxIter  .... 51

Convergence Tolerances:
Energy Change            TolE     ....  5.0000e-06 Eh
Max. Gradient            TolMAXG  ....  3.0000e-04 Eh/bohr
RMS Gradient             TolRMSG  ....  1.0000e-04 Eh/bohr
Max. Displacement        TolMAXD  ....  4.0000e-03 bohr
RMS Displacement         TolRMSD  ....  2.0000e-03 bohr
Strict Convergence                .... True

------------------------------------------------------------------------------
                        ORCA OPTIMIZATION COORDINATE SETUP
------------------------------------------------------------------------------

The optimization will be done in redundant internal coordinates (2022)
Making redundant internal coordinates   ...  (2022 redundants) done
Evaluating the initial hessian          ...  (Almloef) done
Evaluating the coordinates              ...  done
Calculating the B-matrix                .... done
Calculating the G-matrix                .... done
The number of degrees of freedom        ....   71

    -----------------------------------------------------------------
                    Redundant Internal Coordinates


    -----------------------------------------------------------------
         Definition                    Initial Value    Approx d2E/dq
    -----------------------------------------------------------------
      1. B(C   1,C   0)                  1.5458         0.352526   
      2. B(C   4,C   1)                  1.5339         0.368301   
      3. B(C   5,C   0)                  1.5262         0.378759   
      4. B(O   6,C   4)                  1.2224         1.035943   
      5. B(N   7,H   3)                  1.0238         0.411278   
      6. B(N   7,H   2)                  1.0190         0.418643   
      7. B(N   7,C   1)                  1.4827         0.398069   
      8. B(O   8,H   3)                  2.2435         0.010000   
      9. B(O   8,C   4)                  1.3542         0.638245   
     10. B(H   9,O   8)                  0.9801         0.482991   
     11. B(H  10,C   1)                  1.0975         0.350365   
     12. B(H  11,C   5)                  1.0938         0.355126   
     13. B(O  12,C   0)                  1.4315         0.480395   
     14. B(H  13,C   5)                  1.0958         0.352553   
     15. B(H  14,C   5)                  1.0944         0.354284   
     16. B(H  15,C   0)                  1.0969         0.351033   
     17. B(H  16,O   6)                  2.1386         0.010000   
     18. B(H  16,O  12)                  0.9792         0.484598   
     19. A(C   1,C   0,C   5)          114.9340         0.360620   
     20. A(O  12,C   0,H  15)          105.5979         0.334631   
     21. A(C   1,C   0,H  15)          108.0053         0.319914   
     22. A(C   5,C   0,O  12)          109.2246         0.377931   
     23. A(C   1,C   0,O  12)          110.8664         0.373275   
     24. A(C   5,C   0,H  15)          107.7429         0.323696   
     25. A(N   7,C   1,H  10)          108.5969         0.324297   
     26. A(C   0,C   1,C   4)          111.4241         0.358904   
     27. A(C   0,C   1,H  10)          108.9727         0.319814   
     28. A(C   4,C   1,H  10)          105.2412         0.322112   
     29. A(C   4,C   1,N   7)          110.4152         0.364146   
     30. A(C   0,C   1,N   7)          111.9241         0.361434   
     31. A(C   1,C   4,O   6)          126.5991         0.430648   
     32. A(O   6,C   4,O   8)          120.1061         0.472740   
     33. A(C   1,C   4,O   8)          113.1440         0.395175   
     34. A(C   0,C   5,H  11)          111.7445         0.324312   
     35. A(H  13,C   5,H  14)          106.2173         0.289135   
     36. A(H  11,C   5,H  14)          108.7125         0.289465   
     37. A(C   0,C   5,H  14)          111.7563         0.324186   
     38. A(H  11,C   5,H  13)          108.2292         0.289243   
     39. A(C   0,C   5,H  13)          109.9696         0.323925   
     40. A(C   1,N   7,H   3)          107.4331         0.330147   
     41. A(C   1,N   7,H   2)          108.9926         0.331118   
     42. A(H   2,N   7,H   3)          106.4489         0.299230   
     43. A(C   4,O   8,H   9)          104.0179         0.367284   
     44. A(C   0,O  12,H  16)          107.1868         0.350148   
     45. D(C   4,C   1,C   0,C   5)     61.6843         0.010001   
     46. D(C   4,C   1,C   0,H  15)   -178.0189         0.010001   
     47. D(C   4,C   1,C   0,O  12)    -62.7752         0.010001   
     48. D(N   7,C   1,C   0,O  12)    173.0409         0.010001   
     49. D(N   7,C   1,C   0,C   5)    -62.4996         0.010001   
     50. D(N   7,C   1,C   0,H  15)     57.7972         0.010001   
     51. D(O   6,C   4,C   1,C   0)     24.7206         0.010164   
     52. D(O   8,C   4,C   1,C   0)   -159.7785         0.010164   
     53. D(O   6,C   4,C   1,H  10)    -93.2417         0.010164   
     54. D(O   8,C   4,C   1,N   7)    -34.7477         0.010164   
     55. D(O   6,C   4,C   1,N   7)    149.7514         0.010164   
     56. D(H  11,C   5,C   0,H  15)    -61.9324         0.011438   
     57. D(H  11,C   5,C   0,O  12)   -176.1726         0.011438   
     58. D(H  13,C   5,C   0,C   1)    178.7245         0.011438   
     59. D(H  11,C   5,C   0,C   1)     58.5088         0.011438   
     60. D(H  13,C   5,C   0,H  15)     58.2833         0.011438   
     61. D(H  13,C   5,C   0,O  12)    -55.9570         0.011438   
     62. D(H   3,N   7,C   1,C   4)     46.4893         0.013532   
     63. D(H   3,N   7,C   1,C   0)    171.2351         0.013532   
     64. D(H   2,N   7,C   1,H  10)     46.5379         0.013532   
     65. D(H   2,N   7,C   1,C   4)    161.4477         0.013532   
     66. D(H   2,N   7,C   1,C   0)    -73.8065         0.013532   
     67. D(H   9,O   8,C   4,O   6)     -3.2569         0.033141   
     68. D(H   9,O   8,C   4,C   1)   -179.0823         0.033141   
     69. D(H  16,O  12,C   0,H  15)   -177.0125         0.018206   
     70. D(H  16,O  12,C   0,C   5)    -61.3904         0.018206   
     71. D(H  16,O  12,C   0,C   1)     66.2525         0.018206   
    -----------------------------------------------------------------

Number of atoms                         .... 17
Number of degrees of freedom            .... 71


         *************************************************************
         *                GEOMETRY OPTIMIZATION CYCLE   1            *
         *************************************************************
---------------------------------
CARTESIAN COORDINATES (ANGSTROEM)
---------------------------------
  C    -1.183043    1.923099   -0.671855
  C    -1.297422    3.428318   -0.339160
  H    -3.330349    3.721679   -0.375996
  H    -2.529848    4.724172    0.639684
  C    -0.121217    3.902344    0.523742
  C    -1.205538    0.993173    0.538172
  O     0.988876    3.394324    0.585138
  N    -2.585707    3.753511    0.318875
  O    -0.380047    5.051846    1.191214
  H     0.450520    5.235973    1.677837
  H    -1.223972    4.005932   -1.269421
  H    -2.121291    1.112832    1.124216
  O    -0.008489    1.659986   -1.446777
  H    -1.142815   -0.050248    0.209477
  H    -0.344987    1.159418    1.193607
  H    -2.028410    1.653173   -1.316663
  H     0.763662    1.847873   -0.874713

----------------------------
CARTESIAN COORDINATES (A.U.)
----------------------------
  NO LB    ZA    FRAG    MASS        X           Y           Z
   0 C   6.0000    1    12.011   -2.235628    3.634130   -1.269622
   1 C   6.0000    1    12.011   -2.451773    6.478582   -0.640919
   2 H   1.0000    1     1.008   -6.293448    7.032954   -0.710530
   3 H   1.0000    1     1.008   -4.780720    8.927391    1.208828
   4 C   6.0000    1    12.011   -0.229068    7.374362    0.989728
   5 C   6.0000    1    12.011   -2.278137    1.876824    1.016997
   6 O   8.0000    1    15.999    1.868706    6.414343    1.105751
   7 N   7.0000    1    14.007   -4.886278    7.093108    0.602587
   8 O   8.0000    1    15.999   -0.718185    9.546605    2.251068
   9 H   1.0000    1     1.008    0.851359    9.894555    3.170653
  10 H   1.0000    1     1.008   -2.312972    7.570114   -2.398858
  11 H   1.0000    1     1.008   -4.008658    2.102947    2.124460
  12 O   8.0000    1    15.999   -0.016041    3.136919   -2.734012
  13 H   1.0000    1     1.008   -2.159607   -0.094956    0.395855
  14 H   1.0000    1     1.008   -0.651931    2.190982    2.255591
  15 H   1.0000    1     1.008   -3.833139    3.124045   -2.488132
  16 H   1.0000    1     1.008    1.443111    3.491974   -1.652968

      -----------------------------------------------------------      
     |                   =====================                   |     
     |                           x T B                           |     
     |                   =====================                   |     
     |                         S. Grimme                         |     
     |          Mulliken Center for Theoretical Chemistry        |     
     |                    University of Bonn                     |     
      -----------------------------------------------------------      

   * xtb version 6.7.1 (edcfbbe) compiled by 'albert@albert-system' on 2024-07-22

   xtb is free software: you can redistribute it and/or modify it under
   the terms of the GNU Lesser General Public License as published by
   the Free Software Foundation, either version 3 of the License, or
   (at your option) any later version.
   
   xtb is distributed in the hope that it will be useful,
   but WITHOUT ANY WARRANTY; without even the implied warranty of
   MERCHANTABILITY or FITNESS FOR A PARTICULAR PURPOSE.  See the
   GNU Lesser General Public License for more details.
   
   Cite this work as:
   * C. Bannwarth, E. Caldeweyher, S. Ehlert, A. Hansen, P. Pracht,
     J. Seibert, S. Spicher, S. Grimme, WIREs Comput. Mol. Sci., 2020, 11,
     e01493. DOI: 10.1002/wcms.1493
   
   for GFN2-xTB:
   * C. Bannwarth, S. Ehlert and S. Grimme., J. Chem. Theory Comput., 2019,
     15, 1652-1671. DOI: 10.1021/acs.jctc.8b01176
   for GFN1-xTB:
   * S. Grimme, C. Bannwarth, P. Shushkov, J. Chem. Theory Comput., 2017,
     13, 1989-2009. DOI: 10.1021/acs.jctc.7b00118
   for GFN0-xTB:
   * P. Pracht, E. Caldeweyher, S. Ehlert, S. Grimme, ChemRxiv, 2019, preprint.
     DOI: 10.26434/chemrxiv.8326202.v1
   for GFN-FF:
   * S. Spicher and S. Grimme, Angew. Chem. Int. Ed., 2020, 59, 15665-15673.
     DOI: 10.1002/anie.202004239
   
   for ALPB and GBSA implicit solvation:
   * S. Ehlert, M. Stahn, S. Spicher, S. Grimme, J. Chem. Theory Comput.,
     2021, 17, 4250-4261. DOI: 10.1021/acs.jctc.1c00471
   
   for ddCOSMO and CPCM-X implicit solvation:
   * M. Stahn, S. Ehlert, S. Grimme, J. Phys. Chem. A,
     2023, XX, XXXX-XXXX. DOI: 10.1021/acs.jpca.3c04382
   
   for DFT-D4:
   * E. Caldeweyher, C. Bannwarth and S. Grimme, J. Chem. Phys., 2017,
     147, 034112. DOI: 10.1063/1.4993215
   * E. Caldeweyher, S. Ehlert, A. Hansen, H. Neugebauer, S. Spicher,
     C. Bannwarth and S. Grimme, J. Chem. Phys., 2019, 150, 154122.
     DOI: 10.1063/1.5090222
   * E. Caldeweyher, J.-M. Mewes, S. Ehlert and S. Grimme, Phys. Chem. Chem. Phys.
     2020, 22, 8499-8512. DOI: 10.1039/D0CP00502A
   
   for sTDA-xTB:
   * S. Grimme and C. Bannwarth, J. Chem. Phys., 2016, 145, 054103.
     DOI: 10.1063/1.4959605
   
   in the mass-spec context:
   * V. Asgeirsson, C. Bauer and S. Grimme, Chem. Sci., 2017, 8, 4879.
     DOI: 10.1039/c7sc00601b
   * J. Koopman and S. Grimme, ACS Omega 2019, 4, 12, 15120-15133.
     DOI: 10.1021/acsomega.9b02011
   
   for metadynamics refer to:
   * S. Grimme, J. Chem. Theory Comput., 2019, 155, 2847-2862
     DOI: 10.1021/acs.jctc.9b00143
   
   for SPH calculations refer to:
   * S. Spicher and S. Grimme, J. Chem. Theory Comput., 2021, 17, 1701-1714
     DOI: 10.1021/acs.jctc.0c01306
   
   for ONIOM refer to:
   * C. Plett, A. Katbashev, S. Ehlert, S. Grimme, M. Bursch,
     Phys. Chem. Chem. Phys., 2023, 25, 17860-17868. DOI: 10.1039/D3CP02178E
   
   for DIPRO refer to:
   * J. Kohn, N. Gildemeister, S. Grimme, D. Fazzi, A. Hansen,
     J. Chem. Phys., 2023, just accepted.
   
   for PTB refer to:
   * S. Grimme, M. Mueller, A. Hansen, J. Chem. Phys., 2023, 158, 124111.
     DOI: 10.1063/5.0137838
   
   with help from (in alphabetical order)
   P. Atkinson, C. Bannwarth, F. Bohle, G. Brandenburg, E. Caldeweyher
   M. Checinski, S. Dohm, S. Ehlert, S. Ehrlich, I. Gerasimov, C. Hölzer
   A. Katbashev, J. Kohn, J. Koopman, C. Lavigne, S. Lehtola, F. März, M. Müller,
   F. Musil, H. Neugebauer, J. Pisarek, C. Plett, P. Pracht, F. Pultar,
   J. Seibert, P. Shushkov, S. Spicher, M. Stahn, M. Steiner, T. Strunk,
   J. Stückrath, T. Rose, and J. Unsleber
   
 * started run on 2025/08/11 at 13:52:12.424     
   ID    Z sym.   atoms
    1    6 C      1, 2, 5, 6
    2    1 H      3, 4, 10-12, 14-17
    3    8 O      7, 9, 13
    4    7 N      8

           -------------------------------------------------
          |                Calculation Setup                |
           -------------------------------------------------

          program call               : /home/test/orca/orca_6_1_0_linux_x86-64_shared_openmpi418/otool_xtb t_XTB.xyz --grad -c 0 -u 0 -P 1 --namespace t --input t_XTB.input.tmp --acc 0.200000
          calculation namespace      : t
          coordinate file            : t_XTB.xyz
          omp threads                :                     1


           -------------------------------------------------
          |                 G F N 2 - x T B                 |
           -------------------------------------------------

        Reference                      10.1021/acs.jctc.8b01176
      * Hamiltonian:
        H0-scaling (s, p, d)           1.850000    2.230000    2.230000
        zeta-weighting                 0.500000
      * Dispersion:
        s8                             2.700000
        a1                             0.520000
        a2                             5.000000
        s9                             5.000000
      * Repulsion:
        kExp                           1.500000    1.000000
        rExp                           1.000000
      * Coulomb:
        alpha                          2.000000
        third order                    shell-resolved
        anisotropic                    true
        a3                             3.000000
        a5                             4.000000
        cn-shift                       1.200000
        cn-exp                         4.000000
        max-rad                        5.000000


          ...................................................
          :                      SETUP                      :
          :.................................................:
          :  # basis functions                  41          :
          :  # atomic orbitals                  41          :
          :  # shells                           25          :
          :  # electrons                        48          :
          :  max. iterations                   250          :
          :  Hamiltonian                  GFN2-xTB          :
          :  restarted?                      false          :
          :  GBSA solvation                  false          :
          :  PC potential                    false          :
          :  electronic temp.          300.0000000     K    :
          :  accuracy                    0.2000000          :
          :  -> integral cutoff          0.3198970E+02      :
          :  -> integral neglect         0.2000000E-08      :
          :  -> SCF convergence          0.2000000E-06 Eh   :
          :  -> wf. convergence          0.2000000E-04 e    :
          :  Broyden damping             0.4000000          :
          :  net charge                          0          :
          :  unpaired electrons                  0          :
          ...................................................

 iter      E             dE          RMSdq      gap      omega  full diag
   1    -28.4530246 -0.284530E+02  0.423E+00    4.20       0.0  T
   2    -28.4998717 -0.468471E-01  0.221E+00    3.70       1.0  T
   3    -28.5022732 -0.240150E-02  0.120E+00    3.87       1.0  T
   4    -28.5062265 -0.395336E-02  0.204E-01    3.40       1.0  T
   5    -28.5064124 -0.185828E-03  0.828E-02    3.42       1.0  T
   6    -28.5064280 -0.156644E-04  0.361E-02    3.42       1.0  T
   7    -28.5064317 -0.363396E-05  0.980E-03    3.43       2.5  T
   8    -28.5064319 -0.202359E-06  0.354E-03    3.43       6.8  T
   9    -28.5064319 -0.189422E-07  0.121E-03    3.43      20.0  T
  10    -28.5064319 -0.241602E-08  0.398E-04    3.43      60.9  T
  11    -28.5064319 -0.532342E-09  0.165E-04    3.43     147.1  T
  12    -28.5064319 -0.485265E-10  0.455E-05    3.43     532.8  T

   *** convergence criteria satisfied after 12 iterations ***

         #    Occupation            Energy/Eh            Energy/eV
      -------------------------------------------------------------
         1        2.0000           -0.7592471             -20.6602
       ...           ...                  ...                  ...
        18        2.0000           -0.4907275             -13.3534
        19        2.0000           -0.4715549             -12.8317
        20        2.0000           -0.4593573             -12.4997
        21        2.0000           -0.4547378             -12.3740
        22        2.0000           -0.4251149             -11.5680
        23        2.0000           -0.4141468             -11.2695
        24        2.0000           -0.3881698             -10.5626 (HOMO)
        25                         -0.2621669              -7.1339 (LUMO)
        26                         -0.0135068              -0.3675
        27                          0.0198096               0.5390
        28                          0.0511209               1.3911
        29                          0.0620633               1.6888
       ...                                ...                  ...
        41                          0.5501767              14.9711
      -------------------------------------------------------------
                  HL-Gap            0.1260029 Eh            3.4287 eV
             Fermi-level           -0.3251683 Eh           -8.8483 eV

 SCC (total)                   0 d,  0 h,  0 min,  0.007 sec
 SCC setup                      ...        0 min,  0.000 sec (  1.435%)
 Dispersion                     ...        0 min,  0.000 sec (  0.672%)
 classical contributions        ...        0 min,  0.000 sec (  0.188%)
 integral evaluation            ...        0 min,  0.001 sec ( 10.328%)
 iterations                     ...        0 min,  0.004 sec ( 58.477%)
 molecular gradient             ...        0 min,  0.002 sec ( 27.748%)
 printout                       ...        0 min,  0.000 sec (  1.020%)

         :::::::::::::::::::::::::::::::::::::::::::::::::::::
         ::                     SUMMARY                     ::
         :::::::::::::::::::::::::::::::::::::::::::::::::::::
         :: total energy             -28.265226557173 Eh    ::
         :: gradient norm              0.054123931845 Eh/a0 ::
         :: HOMO-LUMO gap              3.428714012346 eV    ::
         ::.................................................::
         :: SCC energy               -28.506385553428 Eh    ::
         :: -> isotropic ES            0.082821640629 Eh    ::
         :: -> anisotropic ES          0.002163444079 Eh    ::
         :: -> anisotropic XC          0.005992623478 Eh    ::
         :: -> dispersion             -0.011073801208 Eh    ::
         :: repulsion energy           0.241158996255 Eh    ::
         :: add. restraining           0.000000000000 Eh    ::
         :: total charge               0.000000000000 e     ::
         :::::::::::::::::::::::::::::::::::::::::::::::::::::


Property printout bound to 'properties.out'

           -------------------------------------------------
          | TOTAL ENERGY              -28.265226557173 Eh   |
          | GRADIENT NORM               0.054123931845 Eh/α |
          | HOMO-LUMO GAP               3.428714012346 eV   |
           -------------------------------------------------

------------------------------------------------------------------------
 * finished run on 2025/08/11 at 13:52:12.437     
------------------------------------------------------------------------
 total:
 * wall-time:     0 d,  0 h,  0 min,  0.012 sec
 *  cpu-time:     0 d,  0 h,  0 min,  0.011 sec
 * ratio c/w:     0.905 speedup
 SCF:
 * wall-time:     0 d,  0 h,  0 min,  0.007 sec
 *  cpu-time:     0 d,  0 h,  0 min,  0.006 sec
 * ratio c/w:     0.844 speedup


-------------------------   --------------------
FINAL SINGLE POINT ENERGY       -28.265226557170
-------------------------   --------------------


-------------
DIPOLE MOMENT
-------------
                                X             Y             Z
Total Dipole Moment    :     -0.49500       1.01200       0.40000
                        -----------------------------------------
Magnitude (a.u.)       :      1.19548
Magnitude (Debye)      :      3.03867


------------------
CARTESIAN GRADIENT
------------------

   1   C   :   -0.011230679    0.009895825    0.007330168
   2   C   :    0.004297503   -0.004033339   -0.016530064
   3   H   :   -0.002326704    0.002405766   -0.002466971
   4   H   :    0.001263446    0.006905778   -0.000466004
   5   C   :   -0.011999534   -0.000341912   -0.000046557
   6   C   :    0.000795188    0.003465104   -0.009626604
   7   O   :    0.028203393   -0.007604607    0.003385074
   8   N   :   -0.010312248   -0.002949548    0.004696331
   9   O   :   -0.013742720    0.016099234    0.003263761
  10   H   :    0.008358575   -0.005258135    0.000517997
  11   H   :   -0.006768993    0.001360083    0.005466296
  12   H   :   -0.003650195   -0.002228842    0.003555168
  13   O   :    0.006421047   -0.007861249   -0.010128804
  14   H   :    0.001598591   -0.005639511    0.001811263
  15   H   :    0.002995803   -0.003291200    0.002698047
  16   H   :   -0.001515687   -0.001674983    0.001646297
  17   H   :    0.007613214    0.000751538    0.004894603

Difference to translation invariance:
           :    0.0000000000   -0.0000000000   -0.0000000000

Difference to rotation invariance:
           :   -0.0000000935   -0.0000002017    0.0000003669

Norm of the Cartesian gradient     ...    0.0541239318
RMS gradient                       ...    0.0075788664
MAX gradient                       ...    0.0282033929
------------------------------------------------------------------------------
                         ORCA GEOMETRY RELAXATION STEP
------------------------------------------------------------------------------

Reading the OPT-File                    .... done
Getting information on internals        .... done
Copying old internal coords+grads       .... done
Making the new internal coordinates     .... (2022 redundants) done
Validating the new internal coordinates .... (2022 redundants) done
Calculating the B-matrix                .... done
Calculating the G,G- and P matrices     .... done
Transforming gradient to internals      .... done
Projecting the internal gradient        .... done
Number of atoms                         ....  17
Number of internal coordinates          ....  71
Current Energy                          ....   -28.265226557 Eh
Current gradient norm                   ....     0.054123932 Eh/bohr
Maximum allowed component of the step   ....  0.300
Current trust radius                    ....  0.300
Evaluating the initial hessian          ....  (Almloef) done
Projecting the Hessian                  .... done
Forming the augmented Hessian           .... done
Diagonalizing the augmented Hessian     .... done
Last element of RFO vector              ....  0.985876138
Lowest eigenvalues of augmented Hessian:
 -0.005969642  0.010007034  0.010162966  0.011440225  0.012916096
Length of the computed step             ....  0.169875384
The final length of the internal step   ....  0.169875384
Converting the step to Cartesian space:
 Initial RMS(Int)=    0.0201604991
Transforming coordinates:
 Iter   0:  RMS(Cart)=    0.0612389605 RMS(Int)=    0.7435554165
done
Storing new coordinates                 .... done

                                .--------------------.
          ----------------------|Geometry convergence|-------------------------
          Item                value                   Tolerance       Converged
          ---------------------------------------------------------------------
          RMS gradient        0.0060355403            0.0001000000      NO
          MAX gradient        0.0292194061            0.0003000000      NO
          RMS step            0.0201604991            0.0020000000      NO
          MAX step            0.0579184746            0.0040000000      NO
          -------------------------------------------------------------------------
          ........................................................
          Max(Bonds)      0.0197      Max(Angles)    2.33
          Max(Dihed)        3.32      Max(Improp)    0.00
          ---------------------------------------------------------------------

    ---------------------------------------------------------------------------
                         Redundant Internal Coordinates
                            (Angstroem and degrees)

        Definition                    Value    dE/dq     Step     New-Value
    ----------------------------------------------------------------------------
     1. B(C   1,C   0)                1.5458  0.004802 -0.0084    1.5374   
     2. B(C   4,C   1)                1.5339  0.011066 -0.0178    1.5161   
     3. B(C   5,C   0)                1.5262  0.003424 -0.0047    1.5215   
     4. B(O   6,C   4)                1.2224  0.029219 -0.0148    1.2076   
     5. B(N   7,H   3)                1.0238  0.006767 -0.0083    1.0156   
     6. B(N   7,H   2)                1.0190  0.003307 -0.0041    1.0149   
     7. B(N   7,C   1)                1.4827  0.011295 -0.0156    1.4671   
     8. B(O   8,H   3)                2.2435  0.001109 -0.0068    2.2367   
     9. B(O   8,C   4)                1.3542  0.012027 -0.0099    1.3443   
    10. B(H   9,O   8)                0.9801  0.006353 -0.0069    0.9732   
    11. B(H  10,C   1)                1.0975 -0.004371  0.0065    1.1040   
    12. B(H  11,C   5)                1.0938  0.004717 -0.0069    1.0869   
    13. B(O  12,C   0)                1.4315  0.014983 -0.0168    1.4148   
    14. B(H  13,C   5)                1.0958  0.004918 -0.0073    1.0885   
    15. B(H  14,C   5)                1.0944  0.003471 -0.0051    1.0893   
    16. B(H  15,C   0)                1.0969  0.000613 -0.0009    1.0960   
    17. B(H  16,O   6)                2.1386  0.001616 -0.0197    2.1189   
    18. B(H  16,O  12)                0.9792  0.010010 -0.0101    0.9691   
    19. A(C   1,C   0,C   5)          114.93  0.010296   -1.93    113.00   
    20. A(O  12,C   0,H  15)          105.60  0.003429   -0.26    105.33   
    21. A(C   1,C   0,H  15)          108.01 -0.001963    0.13    108.14   
    22. A(C   5,C   0,O  12)          109.22 -0.008646    1.70    110.92   
    23. A(C   1,C   0,O  12)          110.87 -0.000204   -0.41    110.46   
    24. A(C   5,C   0,H  15)          107.74 -0.003366    0.91    108.65   
    25. A(N   7,C   1,H  10)          108.60 -0.008806    2.33    110.92   
    26. A(C   0,C   1,C   4)          111.42 -0.002599   -0.21    111.21   
    27. A(C   0,C   1,H  10)          108.97  0.003329   -0.63    108.34   
    28. A(C   4,C   1,H  10)          105.24  0.003360   -0.23    105.01   
    29. A(C   4,C   1,N   7)          110.42 -0.001161   -0.02    110.40   
    30. A(C   0,C   1,N   7)          111.92  0.005557   -1.11    110.82   
    31. A(C   1,C   4,O   6)          126.60  0.004501   -0.61    125.99   
    32. A(O   6,C   4,O   8)          120.11 -0.003274    0.65    120.76   
    33. A(C   1,C   4,O   8)          113.14 -0.001416    0.19    113.34   
    34. A(C   0,C   5,H  11)          111.74  0.003724   -0.68    111.07   
    35. A(H  13,C   5,H  14)          106.22 -0.006138    1.16    107.38   
    36. A(H  11,C   5,H  14)          108.71 -0.000377    0.04    108.76   
    37. A(C   0,C   5,H  14)          111.76  0.002992   -0.55    111.21   
    38. A(H  11,C   5,H  13)          108.23 -0.003070    0.56    108.79   
    39. A(C   0,C   5,H  13)          109.97  0.002170   -0.41    109.56   
    40. A(C   1,N   7,H   3)          107.43 -0.005451    0.96    108.40   
    41. A(C   1,N   7,H   2)          108.99  0.000567    0.17    109.16   
    42. A(H   2,N   7,H   3)          106.45 -0.000470    0.76    107.21   
    43. A(C   4,O   8,H   9)          104.02 -0.014020    2.15    106.17   
    44. A(C   0,O  12,H  16)          107.19 -0.000332   -0.14    107.05   
    45. D(C   4,C   1,C   0,C   5)     61.68 -0.000555   -1.66     60.03   
    46. D(C   4,C   1,C   0,H  15)   -178.02  0.000383   -1.65   -179.67   
    47. D(C   4,C   1,C   0,O  12)    -62.78  0.003254   -2.11    -64.88   
    48. D(N   7,C   1,C   0,O  12)    173.04  0.002579   -1.10    171.94   
    49. D(N   7,C   1,C   0,C   5)    -62.50 -0.001229   -0.65    -63.15   
    50. D(N   7,C   1,C   0,H  15)     57.80 -0.000292   -0.64     57.16   
    51. D(O   6,C   4,C   1,C   0)     24.72  0.000648   -1.72     23.00   
    52. D(O   8,C   4,C   1,C   0)   -159.78 -0.002341    1.90   -157.88   
    53. D(O   6,C   4,C   1,H  10)    -93.24 -0.003957   -0.72    -93.96   
    54. D(O   8,C   4,C   1,N   7)    -34.75  0.002119    0.30    -34.45   
    55. D(O   6,C   4,C   1,N   7)    149.75  0.005108   -3.32    146.43   
    56. D(H  11,C   5,C   0,H  15)    -61.93 -0.001195    0.20    -61.74   
    57. D(H  11,C   5,C   0,O  12)   -176.17  0.000941   -0.84   -177.01   
    58. D(H  13,C   5,C   0,C   1)    178.72  0.000510   -0.23    178.49   
    59. D(H  11,C   5,C   0,C   1)     58.51  0.000484   -0.22     58.29   
    60. D(H  13,C   5,C   0,H  15)     58.28 -0.001169    0.18     58.46   
    61. D(H  13,C   5,C   0,O  12)    -55.96  0.000967   -0.85    -56.81   
    62. D(H   3,N   7,C   1,C   4)     46.49  0.001284    0.27     46.76   
    63. D(H   3,N   7,C   1,C   0)    171.24  0.001097   -0.83    170.41   
    64. D(H   2,N   7,C   1,H  10)     46.54 -0.000249    0.72     47.26   
    65. D(H   2,N   7,C   1,C   4)    161.45 -0.001846    1.75    163.20   
    66. D(H   2,N   7,C   1,C   0)    -73.81 -0.002033    0.66    -73.15   
    67. D(H   9,O   8,C   4,O   6)     -3.26 -0.001508    2.11     -1.15   
    68. D(H   9,O   8,C   4,C   1)   -179.08  0.000882   -1.19   -180.27   
    69. D(H  16,O  12,C   0,H  15)   -177.01  0.001951   -1.38   -178.40   
    70. D(H  16,O  12,C   0,C   5)    -61.39 -0.004296    0.35    -61.04   
    71. D(H  16,O  12,C   0,C   1)     66.25  0.002431   -1.18     65.07   
    ----------------------------------------------------------------------------

Geometry step timings:
Preparation and reading OPT file:      0.000 s ( 1.309 %)
Internal coordinates            :      0.000 s ( 1.854 %)
B/P matrices and projection     :      0.001 s (27.754 %)
Hessian update/contruction      :      0.000 s ( 9.706 %)
Making the step                 :      0.000 s (19.629 %)
Converting the step to Cartesian:      0.000 s ( 2.999 %)
Storing new data                :      0.000 s ( 1.418 %)
Checking convergence            :      0.000 s ( 1.690 %)
Final printing                  :      0.001 s (33.642 %)
Total time                      :      0.002 s

Time for energy+gradient        :      0.016 s
Time for complete geometry iter :      0.019 s

         *************************************************************
         *                GEOMETRY OPTIMIZATION CYCLE   2            *
         *************************************************************
---------------------------------
CARTESIAN COORDINATES (ANGSTROEM)
---------------------------------
  C    -1.182693    1.925987   -0.682035
  C    -1.285966    3.424182   -0.353294
  H    -3.308904    3.681757   -0.384586
  H    -2.528461    4.682892    0.644763
  C    -0.126759    3.875889    0.512987
  C    -1.192741    1.043048    0.557076
  O     0.948697    3.333040    0.597134
  N    -2.563029    3.727531    0.302104
  O    -0.386694    4.997055    1.207616
  H     0.415466    5.187654    1.724654
  H    -1.179829    3.994226   -1.292705
  H    -2.096171    1.199336    1.140756
  O    -0.038587    1.671492   -1.474303
  H    -1.144162   -0.002899    0.259619
  H    -0.328419    1.241872    1.189582
  H    -2.037542    1.655058   -1.312210
  H     0.735719    1.879285   -0.929781

----------------------------
CARTESIAN COORDINATES (A.U.)
----------------------------
  NO LB    ZA    FRAG    MASS        X           Y           Z
   0 C   6.0000    1    12.011   -2.234967    3.639589   -1.288859
   1 C   6.0000    1    12.011   -2.430123    6.470767   -0.667629
   2 H   1.0000    1     1.008   -6.252923    6.957512   -0.726763
   3 H   1.0000    1     1.008   -4.778099    8.849383    1.218425
   4 C   6.0000    1    12.011   -0.239540    7.324368    0.969405
   5 C   6.0000    1    12.011   -2.253954    1.971076    1.052722
   6 O   8.0000    1    15.999    1.792778    6.298533    1.128420
   7 N   7.0000    1    14.007   -4.843423    7.044012    0.570894
   8 O   8.0000    1    15.999   -0.730745    9.443065    2.282063
   9 H   1.0000    1     1.008    0.785117    9.803245    3.259124
  10 H   1.0000    1     1.008   -2.229554    7.547993   -2.442858
  11 H   1.0000    1     1.008   -3.961189    2.266417    2.155717
  12 O   8.0000    1    15.999   -0.072920    3.158663   -2.786030
  13 H   1.0000    1     1.008   -2.162154   -0.005478    0.490610
  14 H   1.0000    1     1.008   -0.620623    2.346798    2.247984
  15 H   1.0000    1     1.008   -3.850396    3.127606   -2.479717
  16 H   1.0000    1     1.008    1.390308    3.551334   -1.757031

      -----------------------------------------------------------      
     |                   =====================                   |     
     |                           x T B                           |     
     |                   =====================                   |     
     |                         S. Grimme                         |     
     |          Mulliken Center for Theoretical Chemistry        |     
     |                    University of Bonn                     |     
      -----------------------------------------------------------      

   * xtb version 6.7.1 (edcfbbe) compiled by 'albert@albert-system' on 2024-07-22

   xtb is free software: you can redistribute it and/or modify it under
   the terms of the GNU Lesser General Public License as published by
   the Free Software Foundation, either version 3 of the License, or
   (at your option) any later version.
   
   xtb is distributed in the hope that it will be useful,
   but WITHOUT ANY WARRANTY; without even the implied warranty of
   MERCHANTABILITY or FITNESS FOR A PARTICULAR PURPOSE.  See the
   GNU Lesser General Public License for more details.
   
   Cite this work as:
   * C. Bannwarth, E. Caldeweyher, S. Ehlert, A. Hansen, P. Pracht,
     J. Seibert, S. Spicher, S. Grimme, WIREs Comput. Mol. Sci., 2020, 11,
     e01493. DOI: 10.1002/wcms.1493
   
   for GFN2-xTB:
   * C. Bannwarth, S. Ehlert and S. Grimme., J. Chem. Theory Comput., 2019,
     15, 1652-1671. DOI: 10.1021/acs.jctc.8b01176
   for GFN1-xTB:
   * S. Grimme, C. Bannwarth, P. Shushkov, J. Chem. Theory Comput., 2017,
     13, 1989-2009. DOI: 10.1021/acs.jctc.7b00118
   for GFN0-xTB:
   * P. Pracht, E. Caldeweyher, S. Ehlert, S. Grimme, ChemRxiv, 2019, preprint.
     DOI: 10.26434/chemrxiv.8326202.v1
   for GFN-FF:
   * S. Spicher and S. Grimme, Angew. Chem. Int. Ed., 2020, 59, 15665-15673.
     DOI: 10.1002/anie.202004239
   
   for ALPB and GBSA implicit solvation:
   * S. Ehlert, M. Stahn, S. Spicher, S. Grimme, J. Chem. Theory Comput.,
     2021, 17, 4250-4261. DOI: 10.1021/acs.jctc.1c00471
   
   for ddCOSMO and CPCM-X implicit solvation:
   * M. Stahn, S. Ehlert, S. Grimme, J. Phys. Chem. A,
     2023, XX, XXXX-XXXX. DOI: 10.1021/acs.jpca.3c04382
   
   for DFT-D4:
   * E. Caldeweyher, C. Bannwarth and S. Grimme, J. Chem. Phys., 2017,
     147, 034112. DOI: 10.1063/1.4993215
   * E. Caldeweyher, S. Ehlert, A. Hansen, H. Neugebauer, S. Spicher,
     C. Bannwarth and S. Grimme, J. Chem. Phys., 2019, 150, 154122.
     DOI: 10.1063/1.5090222
   * E. Caldeweyher, J.-M. Mewes, S. Ehlert and S. Grimme, Phys. Chem. Chem. Phys.
     2020, 22, 8499-8512. DOI: 10.1039/D0CP00502A
   
   for sTDA-xTB:
   * S. Grimme and C. Bannwarth, J. Chem. Phys., 2016, 145, 054103.
     DOI: 10.1063/1.4959605
   
   in the mass-spec context:
   * V. Asgeirsson, C. Bauer and S. Grimme, Chem. Sci., 2017, 8, 4879.
     DOI: 10.1039/c7sc00601b
   * J. Koopman and S. Grimme, ACS Omega 2019, 4, 12, 15120-15133.
     DOI: 10.1021/acsomega.9b02011
   
   for metadynamics refer to:
   * S. Grimme, J. Chem. Theory Comput., 2019, 155, 2847-2862
     DOI: 10.1021/acs.jctc.9b00143
   
   for SPH calculations refer to:
   * S. Spicher and S. Grimme, J. Chem. Theory Comput., 2021, 17, 1701-1714
     DOI: 10.1021/acs.jctc.0c01306
   
   for ONIOM refer to:
   * C. Plett, A. Katbashev, S. Ehlert, S. Grimme, M. Bursch,
     Phys. Chem. Chem. Phys., 2023, 25, 17860-17868. DOI: 10.1039/D3CP02178E
   
   for DIPRO refer to:
   * J. Kohn, N. Gildemeister, S. Grimme, D. Fazzi, A. Hansen,
     J. Chem. Phys., 2023, just accepted.
   
   for PTB refer to:
   * S. Grimme, M. Mueller, A. Hansen, J. Chem. Phys., 2023, 158, 124111.
     DOI: 10.1063/5.0137838
   
   with help from (in alphabetical order)
   P. Atkinson, C. Bannwarth, F. Bohle, G. Brandenburg, E. Caldeweyher
   M. Checinski, S. Dohm, S. Ehlert, S. Ehrlich, I. Gerasimov, C. Hölzer
   A. Katbashev, J. Kohn, J. Koopman, C. Lavigne, S. Lehtola, F. März, M. Müller,
   F. Musil, H. Neugebauer, J. Pisarek, C. Plett, P. Pracht, F. Pultar,
   J. Seibert, P. Shushkov, S. Spicher, M. Stahn, M. Steiner, T. Strunk,
   J. Stückrath, T. Rose, and J. Unsleber
   
 * started run on 2025/08/11 at 13:52:12.443     
   ID    Z sym.   atoms
    1    6 C      1, 2, 5, 6
    2    1 H      3, 4, 10-12, 14-17
    3    8 O      7, 9, 13
    4    7 N      8

           -------------------------------------------------
          |                Calculation Setup                |
           -------------------------------------------------

          program call               : /home/test/orca/orca_6_1_0_linux_x86-64_shared_openmpi418/otool_xtb t_XTB.xyz --grad -c 0 -u 0 -P 1 --namespace t --input t_XTB.input.tmp --acc 0.200000
          calculation namespace      : t
          coordinate file            : t_XTB.xyz
          omp threads                :                     1


           -------------------------------------------------
          |                 G F N 2 - x T B                 |
           -------------------------------------------------

        Reference                      10.1021/acs.jctc.8b01176
      * Hamiltonian:
        H0-scaling (s, p, d)           1.850000    2.230000    2.230000
        zeta-weighting                 0.500000
      * Dispersion:
        s8                             2.700000
        a1                             0.520000
        a2                             5.000000
        s9                             5.000000
      * Repulsion:
        kExp                           1.500000    1.000000
        rExp                           1.000000
      * Coulomb:
        alpha                          2.000000
        third order                    shell-resolved
        anisotropic                    true
        a3                             3.000000
        a5                             4.000000
        cn-shift                       1.200000
        cn-exp                         4.000000
        max-rad                        5.000000

q/qsh data taken from xtbrestart
CAMM data taken from xtbrestart

          ...................................................
          :                      SETUP                      :
          :.................................................:
          :  # basis functions                  41          :
          :  # atomic orbitals                  41          :
          :  # shells                           25          :
          :  # electrons                        48          :
          :  max. iterations                   250          :
          :  Hamiltonian                  GFN2-xTB          :
          :  restarted?                       true          :
          :  GBSA solvation                  false          :
          :  PC potential                    false          :
          :  electronic temp.          300.0000000     K    :
          :  accuracy                    0.2000000          :
          :  -> integral cutoff          0.3198970E+02      :
          :  -> integral neglect         0.2000000E-08      :
          :  -> SCF convergence          0.2000000E-06 Eh   :
          :  -> wf. convergence          0.2000000E-04 e    :
          :  Broyden damping             0.4000000          :
          :  net charge                          0          :
          :  unpaired electrons                  0          :
          ...................................................

 iter      E             dE          RMSdq      gap      omega  full diag
   1    -28.5260381 -0.285260E+02  0.206E-01    3.62       0.0  T
   2    -28.5260991 -0.609781E-04  0.124E-01    3.56       1.0  T
   3    -28.5260955  0.361953E-05  0.517E-02    3.58       1.0  T
   4    -28.5261100 -0.144579E-04  0.603E-03    3.56       4.0  T
   5    -28.5261100 -0.767919E-07  0.326E-03    3.57       7.4  T
   6    -28.5261101 -0.181957E-07  0.106E-03    3.57      22.8  T
   7    -28.5261101 -0.284319E-08  0.455E-04    3.57      53.3  T
   8    -28.5261101 -0.280092E-09  0.931E-05    3.57     260.5  T
   9    -28.5261101 -0.237392E-10  0.483E-05    3.57     502.5  T

   *** convergence criteria satisfied after 9 iterations ***

         #    Occupation            Energy/Eh            Energy/eV
      -------------------------------------------------------------
         1        2.0000           -0.7610857             -20.7102
       ...           ...                  ...                  ...
        18        2.0000           -0.4915549             -13.3759
        19        2.0000           -0.4708280             -12.8119
        20        2.0000           -0.4583573             -12.4725
        21        2.0000           -0.4540311             -12.3548
        22        2.0000           -0.4237935             -11.5320
        23        2.0000           -0.4131933             -11.2436
        24        2.0000           -0.3865295             -10.5180 (HOMO)
        25                         -0.2554980              -6.9525 (LUMO)
        26                          0.0027199               0.0740
        27                          0.0370102               1.0071
        28                          0.0664703               1.8087
        29                          0.0758972               2.0653
       ...                                ...                  ...
        41                          0.6012792              16.3616
      -------------------------------------------------------------
                  HL-Gap            0.1310315 Eh            3.5655 eV
             Fermi-level           -0.3210138 Eh           -8.7352 eV

 SCC (total)                   0 d,  0 h,  0 min,  0.011 sec
 SCC setup                      ...        0 min,  0.000 sec (  0.915%)
 Dispersion                     ...        0 min,  0.000 sec (  0.419%)
 classical contributions        ...        0 min,  0.000 sec (  0.114%)
 integral evaluation            ...        0 min,  0.001 sec (  6.464%)
 iterations                     ...        0 min,  0.008 sec ( 73.860%)
 molecular gradient             ...        0 min,  0.002 sec ( 17.443%)
 printout                       ...        0 min,  0.000 sec (  0.693%)

         :::::::::::::::::::::::::::::::::::::::::::::::::::::
         ::                     SUMMARY                     ::
         :::::::::::::::::::::::::::::::::::::::::::::::::::::
         :: total energy             -28.269094773366 Eh    ::
         :: gradient norm              0.024842008808 Eh/a0 ::
         :: HOMO-LUMO gap              3.565548326439 eV    ::
         ::.................................................::
         :: SCC energy               -28.526066000158 Eh    ::
         :: -> isotropic ES            0.082451180008 Eh    ::
         :: -> anisotropic ES          0.001593141260 Eh    ::
         :: -> anisotropic XC          0.005201056018 Eh    ::
         :: -> dispersion             -0.011232519215 Eh    ::
         :: repulsion energy           0.256971226792 Eh    ::
         :: add. restraining           0.000000000000 Eh    ::
         :: total charge              -0.000000000000 e     ::
         :::::::::::::::::::::::::::::::::::::::::::::::::::::


Property printout bound to 'properties.out'

           -------------------------------------------------
          | TOTAL ENERGY              -28.269094773366 Eh   |
          | GRADIENT NORM               0.024842008808 Eh/α |
          | HOMO-LUMO GAP               3.565548326439 eV   |
           -------------------------------------------------

------------------------------------------------------------------------
 * finished run on 2025/08/11 at 13:52:12.460     
------------------------------------------------------------------------
 total:
 * wall-time:     0 d,  0 h,  0 min,  0.016 sec
 *  cpu-time:     0 d,  0 h,  0 min,  0.011 sec
 * ratio c/w:     0.689 speedup
 SCF:
 * wall-time:     0 d,  0 h,  0 min,  0.011 sec
 *  cpu-time:     0 d,  0 h,  0 min,  0.006 sec
 * ratio c/w:     0.542 speedup


-------------------------   --------------------
FINAL SINGLE POINT ENERGY       -28.269094773370
-------------------------   --------------------


-------------
DIPOLE MOMENT
-------------
                                X             Y             Z
Total Dipole Moment    :     -0.46100       1.07500       0.42100
                        -----------------------------------------
Magnitude (a.u.)       :      1.24314
Magnitude (Debye)      :      3.15980


------------------
CARTESIAN GRADIENT
------------------

   1   C   :   -0.005852538    0.007465522    0.006574042
   2   C   :    0.006375444   -0.006081217   -0.007247246
   3   H   :    0.000335678    0.001743366   -0.000903430
   4   H   :    0.001250120    0.001161857   -0.001713868
   5   C   :   -0.000361353   -0.001653890   -0.005400636
   6   C   :    0.000125649    0.003015363   -0.006251663
   7   O   :    0.004241998   -0.001196295    0.003453233
   8   N   :   -0.005527746   -0.001038585    0.003672237
   9   O   :   -0.006356646    0.006854144    0.003165778
  10   H   :    0.003247491   -0.003956122   -0.001185343
  11   H   :   -0.003338006    0.001029286    0.002938509
  12   H   :   -0.000088463   -0.001778977    0.001242915
  13   O   :    0.004198483   -0.002368001   -0.002054132
  14   H   :    0.000747061   -0.000880547    0.001304161
  15   H   :    0.000594968   -0.001640129    0.001131035
  16   H   :   -0.000019283   -0.000828141    0.000935519
  17   H   :    0.000427143    0.000152364    0.000338888

Difference to translation invariance:
           :    0.0000000000    0.0000000000    0.0000000000

Difference to rotation invariance:
           :   -0.0000000741   -0.0000000907    0.0000002615

Norm of the Cartesian gradient     ...    0.0248420088
RMS gradient                       ...    0.0034785770
MAX gradient                       ...    0.0074655225
------------------------------------------------------------------------------
                         ORCA GEOMETRY RELAXATION STEP
------------------------------------------------------------------------------

Reading the OPT-File                    .... done
Getting information on internals        .... done
Copying old internal coords+grads       .... done
Making the new internal coordinates     .... (2022 redundants) done
Validating the new internal coordinates .... (2022 redundants) done
Calculating the B-matrix                .... done
Calculating the G,G- and P matrices     .... done
Transforming gradient to internals      .... done
Projecting the internal gradient        .... done
Number of atoms                         ....  17
Number of internal coordinates          ....  71
Current Energy                          ....   -28.269094773 Eh
Current gradient norm                   ....     0.024842009 Eh/bohr
Maximum allowed component of the step   ....  0.300
Current trust radius                    ....  0.300
Updating the Hessian (BFGS)             .... done
Forming the augmented Hessian           .... done
Diagonalizing the augmented Hessian     .... done
Last element of RFO vector              ....  0.976401835
Lowest eigenvalues of augmented Hessian:
 -0.002457266  0.010063152  0.010264881  0.011438633  0.012926624
Length of the computed step             ....  0.221181170
The final length of the internal step   ....  0.221181170
Converting the step to Cartesian space:
 Initial RMS(Int)=    0.0262493755
Transforming coordinates:
 Iter   0:  RMS(Cart)=    0.0556195752 RMS(Int)=    0.7392163002
 Iter   5:  RMS(Cart)=    0.0000000188 RMS(Int)=    0.0000000171
done
Storing new coordinates                 .... done
The predicted energy change is          ....    -0.001288739
Previously predicted energy change      ....    -0.003070956
Actually observed energy change         ....    -0.003868216
Ratio of predicted to observed change   ....     1.259612982
New trust radius                        ....     0.300000000

                                .--------------------.
          ----------------------|Geometry convergence|-------------------------
          Item                value                   Tolerance       Converged
          ---------------------------------------------------------------------
          Energy change      -0.0038682162            0.0000050000      NO
          RMS gradient        0.0022092195            0.0001000000      NO
          MAX gradient        0.0093716863            0.0003000000      NO
          RMS step            0.0262493755            0.0020000000      NO
          MAX step            0.0917748838            0.0040000000      NO
          -------------------------------------------------------------------------
          ........................................................
          Max(Bonds)      0.0170      Max(Angles)    2.70
          Max(Dihed)        5.26      Max(Improp)    0.00
          ---------------------------------------------------------------------

    ---------------------------------------------------------------------------
                         Redundant Internal Coordinates
                            (Angstroem and degrees)

        Definition                    Value    dE/dq     Step     New-Value
    ----------------------------------------------------------------------------
     1. B(C   1,C   0)                1.5373 -0.003634  0.0055    1.5429   
     2. B(C   4,C   1)                1.5160  0.000955 -0.0069    1.5091   
     3. B(C   5,C   0)                1.5215 -0.001360  0.0012    1.5227   
     4. B(O   6,C   4)                1.2076  0.004535 -0.0079    1.1997   
     5. B(N   7,H   3)                1.0155  0.000491 -0.0035    1.0121   
     6. B(N   7,H   2)                1.0149  0.000286 -0.0018    1.0131   
     7. B(N   7,C   1)                1.4671  0.004473 -0.0131    1.4540   
     8. B(O   8,H   3)                2.2367 -0.000266  0.0142    2.2509   
     9. B(O   8,C   4)                1.3443  0.004058 -0.0078    1.3365   
    10. B(H   9,O   8)                0.9732  0.001272 -0.0041    0.9691   
    11. B(H  10,C   1)                1.1040 -0.002290  0.0068    1.1108   
    12. B(H  11,C   5)                1.0869  0.000485 -0.0032    1.0837   
    13. B(O  12,C   0)                1.4147  0.005156 -0.0129    1.4018   
    14. B(H  13,C   5)                1.0885  0.000523 -0.0034    1.0852   
    15. B(H  14,C   5)                1.0893  0.000829 -0.0033    1.0860   
    16. B(H  15,C   0)                1.0960 -0.000318  0.0004    1.0964   
    17. B(H  16,O   6)                2.1190 -0.000127 -0.0170    2.1020   
    18. B(H  16,O  12)                0.9691  0.000484 -0.0042    0.9649   
    19. A(C   1,C   0,C   5)          113.01  0.004333   -1.75    111.26   
    20. A(O  12,C   0,H  15)          105.33  0.001050   -0.24    105.08   
    21. A(C   1,C   0,H  15)          108.15 -0.000555   -0.29    107.85   
    22. A(C   5,C   0,O  12)          110.92 -0.003689    1.71    112.62   
    23. A(C   1,C   0,O  12)          110.45 -0.000267    0.15    110.60   
    24. A(C   5,C   0,H  15)          108.64 -0.001048    0.51    109.15   
    25. A(N   7,C   1,H  10)          110.92 -0.003627    1.98    112.90   
    26. A(C   0,C   1,C   4)          111.17 -0.001237    0.34    111.52   
    27. A(C   0,C   1,H  10)          108.35  0.001878   -0.92    107.42   
    28. A(C   4,C   1,H  10)          105.00  0.001340   -0.39    104.62   
    29. A(C   4,C   1,N   7)          110.41 -0.000590    0.13    110.54   
    30. A(C   0,C   1,N   7)          110.82  0.002146   -1.07    109.75   
    31. A(C   1,C   4,O   6)          125.93  0.002783   -0.77    125.16   
    32. A(O   6,C   4,O   8)          120.74 -0.003656    0.61    121.35   
    33. A(C   1,C   4,O   8)          113.32  0.000886   -0.34    112.99   
    34. A(C   0,C   5,H  11)          111.06  0.002814   -0.92    110.14   
    35. A(H  13,C   5,H  14)          107.38 -0.002861    1.13    108.50   
    36. A(H  11,C   5,H  14)          108.75 -0.000756    0.20    108.95   
    37. A(C   0,C   5,H  14)          111.20  0.001633   -0.59    110.62   
    38. A(H  11,C   5,H  13)          108.79 -0.001756    0.62    109.41   
    39. A(C   0,C   5,H  13)          109.56  0.000652   -0.31    109.25   
    40. A(C   1,N   7,H   3)          108.40 -0.003340    1.41    109.81   
    41. A(C   1,N   7,H   2)          109.16 -0.001005    0.58    109.73   
    42. A(H   2,N   7,H   3)          107.20 -0.000292    1.04    108.25   
    43. A(C   4,O   8,H   9)          106.17 -0.009372    2.70    108.87   
    44. A(C   0,O  12,H  16)          107.03  0.000082    0.03    107.06   
    45. D(C   4,C   1,C   0,C   5)     60.04 -0.001379    1.92     61.96   
    46. D(C   4,C   1,C   0,H  15)   -179.65 -0.000352    1.22   -178.43   
    47. D(C   4,C   1,C   0,O  12)    -64.87  0.000446    0.85    -64.03   
    48. D(N   7,C   1,C   0,O  12)    171.93  0.000552    1.21    173.14   
    49. D(N   7,C   1,C   0,C   5)    -63.15 -0.001273    2.28    -60.87   
    50. D(N   7,C   1,C   0,H  15)     57.16 -0.000246    1.58     58.74   
    51. D(O   6,C   4,C   1,C   0)     23.01 -0.000728    4.11     27.12   
    52. D(O   8,C   4,C   1,C   0)   -157.88  0.000220   -2.24   -160.12   
    53. D(O   6,C   4,C   1,H  10)    -93.95 -0.003097    5.26    -88.69   
    54. D(O   8,C   4,C   1,N   7)    -34.45  0.001685   -3.27    -37.73   
    55. D(O   6,C   4,C   1,N   7)    146.44  0.000736    3.07    149.51   
    56. D(H  11,C   5,C   0,H  15)    -61.72 -0.000745   -0.35    -62.07   
    57. D(H  11,C   5,C   0,O  12)   -177.04  0.000643   -1.24   -178.28   
    58. D(H  13,C   5,C   0,C   1)    178.50  0.000616   -1.51    176.99   
    59. D(H  11,C   5,C   0,C   1)     58.30  0.000591   -1.49     56.81   
    60. D(H  13,C   5,C   0,H  15)     58.48 -0.000719   -0.37     58.11   
    61. D(H  13,C   5,C   0,O  12)    -56.84  0.000669   -1.26    -58.10   
    62. D(H   3,N   7,C   1,C   4)     46.76  0.001535   -0.39     46.38   
    63. D(H   3,N   7,C   1,C   0)    170.40  0.001040   -0.61    169.78   
    64. D(H   2,N   7,C   1,H  10)     47.25 -0.000319    1.13     48.38   
    65. D(H   2,N   7,C   1,C   4)    163.22 -0.001208    1.89    165.11   
    66. D(H   2,N   7,C   1,C   0)    -73.15 -0.001703    1.66    -71.49   
    67. D(H   9,O   8,C   4,O   6)     -1.13  0.000366   -2.60     -3.73   
    68. D(H   9,O   8,C   4,C   1)    179.71 -0.000589    3.32    183.03   
    69. D(H  16,O  12,C   0,H  15)   -178.40  0.000785   -0.34   -178.74   
    70. D(H  16,O  12,C   0,C   5)    -61.04 -0.001723    0.96    -60.08   
    71. D(H  16,O  12,C   0,C   1)     65.06  0.000988    0.07     65.12   
    ----------------------------------------------------------------------------

Geometry step timings:
Preparation and reading OPT file:      0.000 s ( 1.105 %)
Internal coordinates            :      0.000 s ( 1.736 %)
B/P matrices and projection     :      0.000 s (31.650 %)
Hessian update/contruction      :      0.000 s (10.734 %)
Making the step                 :      0.000 s (20.994 %)
Converting the step to Cartesian:      0.000 s ( 4.499 %)
Storing new data                :      0.000 s ( 1.657 %)
Checking convergence            :      0.000 s ( 3.710 %)
Final printing                  :      0.000 s (23.915 %)
Total time                      :      0.001 s

Time for energy+gradient        :      0.020 s
Time for complete geometry iter :      0.022 s

         *************************************************************
         *                GEOMETRY OPTIMIZATION CYCLE   3            *
         *************************************************************
---------------------------------
CARTESIAN COORDINATES (ANGSTROEM)
---------------------------------
  C    -1.166046    1.923127   -0.695531
  C    -1.270710    3.420891   -0.339817
  H    -3.294866    3.612809   -0.349850
  H    -2.539919    4.618559    0.703584
  C    -0.120228    3.865827    0.529527
  C    -1.224961    1.053695    0.553153
  O     0.969383    3.364155    0.545592
  N    -2.539177    3.681425    0.321384
  O    -0.376113    4.995497    1.196249
  H     0.414874    5.251507    1.694204
  H    -1.148247    3.995846   -1.282272
  H    -2.135925    1.254437    1.104771
  O    -0.023664    1.677582   -1.470037
  H    -1.202451    0.008443    0.262470
  H    -0.372553    1.250689    1.196616
  H    -2.011212    1.672815   -1.347575
  H     0.741738    1.870100   -0.915091

----------------------------
CARTESIAN COORDINATES (A.U.)
----------------------------
  NO LB    ZA    FRAG    MASS        X           Y           Z
   0 C   6.0000    1    12.011   -2.203508    3.634184   -1.314363
   1 C   6.0000    1    12.011   -2.401294    6.464547   -0.642160
   2 H   1.0000    1     1.008   -6.226395    6.827219   -0.661121
   3 H   1.0000    1     1.008   -4.799752    8.727812    1.329581
   4 C   6.0000    1    12.011   -0.227197    7.305353    1.000661
   5 C   6.0000    1    12.011   -2.314841    1.991196    1.045308
   6 O   8.0000    1    15.999    1.831868    6.357331    1.031020
   7 N   7.0000    1    14.007   -4.798349    6.956885    0.607328
   8 O   8.0000    1    15.999   -0.710751    9.440121    2.260583
   9 H   1.0000    1     1.008    0.783999    9.923911    3.201581
  10 H   1.0000    1     1.008   -2.169873    7.551055   -2.423143
  11 H   1.0000    1     1.008   -4.036313    2.370542    2.087715
  12 O   8.0000    1    15.999   -0.044718    3.170170   -2.777968
  13 H   1.0000    1     1.008   -2.272304    0.015956    0.495996
  14 H   1.0000    1     1.008   -0.704022    2.363461    2.261276
  15 H   1.0000    1     1.008   -3.800639    3.161163   -2.546547
  16 H   1.0000    1     1.008    1.401682    3.533977   -1.729271

      -----------------------------------------------------------      
     |                   =====================                   |     
     |                           x T B                           |     
     |                   =====================                   |     
     |                         S. Grimme                         |     
     |          Mulliken Center for Theoretical Chemistry        |     
     |                    University of Bonn                     |     
      -----------------------------------------------------------      

   * xtb version 6.7.1 (edcfbbe) compiled by 'albert@albert-system' on 2024-07-22

   xtb is free software: you can redistribute it and/or modify it under
   the terms of the GNU Lesser General Public License as published by
   the Free Software Foundation, either version 3 of the License, or
   (at your option) any later version.
   
   xtb is distributed in the hope that it will be useful,
   but WITHOUT ANY WARRANTY; without even the implied warranty of
   MERCHANTABILITY or FITNESS FOR A PARTICULAR PURPOSE.  See the
   GNU Lesser General Public License for more details.
   
   Cite this work as:
   * C. Bannwarth, E. Caldeweyher, S. Ehlert, A. Hansen, P. Pracht,
     J. Seibert, S. Spicher, S. Grimme, WIREs Comput. Mol. Sci., 2020, 11,
     e01493. DOI: 10.1002/wcms.1493
   
   for GFN2-xTB:
   * C. Bannwarth, S. Ehlert and S. Grimme., J. Chem. Theory Comput., 2019,
     15, 1652-1671. DOI: 10.1021/acs.jctc.8b01176
   for GFN1-xTB:
   * S. Grimme, C. Bannwarth, P. Shushkov, J. Chem. Theory Comput., 2017,
     13, 1989-2009. DOI: 10.1021/acs.jctc.7b00118
   for GFN0-xTB:
   * P. Pracht, E. Caldeweyher, S. Ehlert, S. Grimme, ChemRxiv, 2019, preprint.
     DOI: 10.26434/chemrxiv.8326202.v1
   for GFN-FF:
   * S. Spicher and S. Grimme, Angew. Chem. Int. Ed., 2020, 59, 15665-15673.
     DOI: 10.1002/anie.202004239
   
   for ALPB and GBSA implicit solvation:
   * S. Ehlert, M. Stahn, S. Spicher, S. Grimme, J. Chem. Theory Comput.,
     2021, 17, 4250-4261. DOI: 10.1021/acs.jctc.1c00471
   
   for ddCOSMO and CPCM-X implicit solvation:
   * M. Stahn, S. Ehlert, S. Grimme, J. Phys. Chem. A,
     2023, XX, XXXX-XXXX. DOI: 10.1021/acs.jpca.3c04382
   
   for DFT-D4:
   * E. Caldeweyher, C. Bannwarth and S. Grimme, J. Chem. Phys., 2017,
     147, 034112. DOI: 10.1063/1.4993215
   * E. Caldeweyher, S. Ehlert, A. Hansen, H. Neugebauer, S. Spicher,
     C. Bannwarth and S. Grimme, J. Chem. Phys., 2019, 150, 154122.
     DOI: 10.1063/1.5090222
   * E. Caldeweyher, J.-M. Mewes, S. Ehlert and S. Grimme, Phys. Chem. Chem. Phys.
     2020, 22, 8499-8512. DOI: 10.1039/D0CP00502A
   
   for sTDA-xTB:
   * S. Grimme and C. Bannwarth, J. Chem. Phys., 2016, 145, 054103.
     DOI: 10.1063/1.4959605
   
   in the mass-spec context:
   * V. Asgeirsson, C. Bauer and S. Grimme, Chem. Sci., 2017, 8, 4879.
     DOI: 10.1039/c7sc00601b
   * J. Koopman and S. Grimme, ACS Omega 2019, 4, 12, 15120-15133.
     DOI: 10.1021/acsomega.9b02011
   
   for metadynamics refer to:
   * S. Grimme, J. Chem. Theory Comput., 2019, 155, 2847-2862
     DOI: 10.1021/acs.jctc.9b00143
   
   for SPH calculations refer to:
   * S. Spicher and S. Grimme, J. Chem. Theory Comput., 2021, 17, 1701-1714
     DOI: 10.1021/acs.jctc.0c01306
   
   for ONIOM refer to:
   * C. Plett, A. Katbashev, S. Ehlert, S. Grimme, M. Bursch,
     Phys. Chem. Chem. Phys., 2023, 25, 17860-17868. DOI: 10.1039/D3CP02178E
   
   for DIPRO refer to:
   * J. Kohn, N. Gildemeister, S. Grimme, D. Fazzi, A. Hansen,
     J. Chem. Phys., 2023, just accepted.
   
   for PTB refer to:
   * S. Grimme, M. Mueller, A. Hansen, J. Chem. Phys., 2023, 158, 124111.
     DOI: 10.1063/5.0137838
   
   with help from (in alphabetical order)
   P. Atkinson, C. Bannwarth, F. Bohle, G. Brandenburg, E. Caldeweyher
   M. Checinski, S. Dohm, S. Ehlert, S. Ehrlich, I. Gerasimov, C. Hölzer
   A. Katbashev, J. Kohn, J. Koopman, C. Lavigne, S. Lehtola, F. März, M. Müller,
   F. Musil, H. Neugebauer, J. Pisarek, C. Plett, P. Pracht, F. Pultar,
   J. Seibert, P. Shushkov, S. Spicher, M. Stahn, M. Steiner, T. Strunk,
   J. Stückrath, T. Rose, and J. Unsleber
   
 * started run on 2025/08/11 at 13:52:12.465     
   ID    Z sym.   atoms
    1    6 C      1, 2, 5, 6
    2    1 H      3, 4, 10-12, 14-17
    3    8 O      7, 9, 13
    4    7 N      8

           -------------------------------------------------
          |                Calculation Setup                |
           -------------------------------------------------

          program call               : /home/test/orca/orca_6_1_0_linux_x86-64_shared_openmpi418/otool_xtb t_XTB.xyz --grad -c 0 -u 0 -P 1 --namespace t --input t_XTB.input.tmp --acc 0.200000
          calculation namespace      : t
          coordinate file            : t_XTB.xyz
          omp threads                :                     1


           -------------------------------------------------
          |                 G F N 2 - x T B                 |
           -------------------------------------------------

        Reference                      10.1021/acs.jctc.8b01176
      * Hamiltonian:
        H0-scaling (s, p, d)           1.850000    2.230000    2.230000
[...]

          program call               : /home/test/orca/orca_6_1_0_linux_x86-64_shared_openmpi418/otool_xtb t_XTB.xyz --grad -c 0 -u 0 -P 1 --namespace t --input t_XTB.input.tmp --acc 0.200000
          calculation namespace      : t
          coordinate file            : t_XTB.xyz
          omp threads                :                     1


           -------------------------------------------------
          |                 G F N 2 - x T B                 |
           -------------------------------------------------

        Reference                      10.1021/acs.jctc.8b01176
      * Hamiltonian:
        H0-scaling (s, p, d)           1.850000    2.230000    2.230000
        zeta-weighting                 0.500000
      * Dispersion:
        s8                             2.700000
        a1                             0.520000
        a2                             5.000000
        s9                             5.000000
      * Repulsion:
        kExp                           1.500000    1.000000
        rExp                           1.000000
      * Coulomb:
        alpha                          2.000000
        third order                    shell-resolved
        anisotropic                    true
        a3                             3.000000
        a5                             4.000000
        cn-shift                       1.200000
        cn-exp                         4.000000
        max-rad                        5.000000

q/qsh data taken from xtbrestart
CAMM data taken from xtbrestart

          ...................................................
          :                      SETUP                      :
          :.................................................:
          :  # basis functions                  41          :
          :  # atomic orbitals                  41          :
          :  # shells                           25          :
          :  # electrons                        48          :
          :  max. iterations                   250          :
          :  Hamiltonian                  GFN2-xTB          :
          :  restarted?                       true          :
          :  GBSA solvation                  false          :
          :  PC potential                    false          :
          :  electronic temp.          300.0000000     K    :
          :  accuracy                    0.2000000          :
          :  -> integral cutoff          0.3198970E+02      :
          :  -> integral neglect         0.2000000E-08      :
          :  -> SCF convergence          0.2000000E-06 Eh   :
          :  -> wf. convergence          0.2000000E-04 e    :
          :  Broyden damping             0.4000000          :
          :  net charge                          0          :
          :  unpaired electrons                  0          :
          ...................................................

 iter      E             dE          RMSdq      gap      omega  full diag
   1    -28.5304223 -0.285304E+02  0.551E-03    3.62       0.0  T
   2    -28.5304223 -0.493025E-08  0.325E-03    3.62       7.5  T
   3    -28.5304223 -0.112224E-08  0.247E-04    3.62      98.1  T
   4    -28.5304223 -0.212257E-09  0.135E-04    3.62     179.3  T
   5    -28.5304223 -0.227551E-10  0.667E-05    3.62     363.7  T

   *** convergence criteria satisfied after 5 iterations ***

         #    Occupation            Energy/Eh            Energy/eV
      -------------------------------------------------------------
         1        2.0000           -0.7602054             -20.6862
       ...           ...                  ...                  ...
        18        2.0000           -0.4904883             -13.3469
        19        2.0000           -0.4724714             -12.8566
        20        2.0000           -0.4582583             -12.4698
        21        2.0000           -0.4525734             -12.3151
        22        2.0000           -0.4218865             -11.4801
        23        2.0000           -0.4110610             -11.1855
        24        2.0000           -0.3828986             -10.4192 (HOMO)
        25                         -0.2498202              -6.7980 (LUMO)
        26                          0.0126834               0.3451
        27                          0.0357788               0.9736
        28                          0.0619028               1.6845
        29                          0.0811096               2.2071
       ...                                ...                  ...
        41                          0.6123043              16.6616
      -------------------------------------------------------------
                  HL-Gap            0.1330784 Eh            3.6212 eV
             Fermi-level           -0.3163594 Eh           -8.6086 eV

 SCC (total)                   0 d,  0 h,  0 min,  0.007 sec
 SCC setup                      ...        0 min,  0.000 sec (  1.424%)
 Dispersion                     ...        0 min,  0.000 sec (  0.676%)
 classical contributions        ...        0 min,  0.000 sec (  0.189%)
 integral evaluation            ...        0 min,  0.001 sec ( 13.127%)
 iterations                     ...        0 min,  0.004 sec ( 55.707%)
 molecular gradient             ...        0 min,  0.002 sec ( 27.624%)
 printout                       ...        0 min,  0.000 sec (  1.095%)

         :::::::::::::::::::::::::::::::::::::::::::::::::::::
         ::                     SUMMARY                     ::
         :::::::::::::::::::::::::::::::::::::::::::::::::::::
         :: total energy             -28.270754447571 Eh    ::
         :: gradient norm              0.000187367089 Eh/a0 ::
         :: HOMO-LUMO gap              3.621248902666 eV    ::
         ::.................................................::
         :: SCC energy               -28.530378340045 Eh    ::
         :: -> isotropic ES            0.082107660358 Eh    ::
         :: -> anisotropic ES          0.001654853540 Eh    ::
         :: -> anisotropic XC          0.004694553994 Eh    ::
         :: -> dispersion             -0.011310710181 Eh    ::
         :: repulsion energy           0.259623892474 Eh    ::
         :: add. restraining           0.000000000000 Eh    ::
         :: total charge              -0.000000000000 e     ::
         :::::::::::::::::::::::::::::::::::::::::::::::::::::


Property printout bound to 'properties.out'

           -------------------------------------------------
          | TOTAL ENERGY              -28.270754447571 Eh   |
          | GRADIENT NORM               0.000187367089 Eh/α |
          | HOMO-LUMO GAP               3.621248902666 eV   |
           -------------------------------------------------

------------------------------------------------------------------------
 * finished run on 2025/08/11 at 13:52:12.694     
------------------------------------------------------------------------
 total:
 * wall-time:     0 d,  0 h,  0 min,  0.012 sec
 *  cpu-time:     0 d,  0 h,  0 min,  0.010 sec
 * ratio c/w:     0.823 speedup
 SCF:
 * wall-time:     0 d,  0 h,  0 min,  0.007 sec
 *  cpu-time:     0 d,  0 h,  0 min,  0.005 sec
 * ratio c/w:     0.696 speedup


-------------------------   --------------------
FINAL SINGLE POINT ENERGY       -28.270754447570
-------------------------   --------------------


-------------
DIPOLE MOMENT
-------------
                                X             Y             Z
Total Dipole Moment    :     -0.55400       1.07800       0.55000
                        -----------------------------------------
Magnitude (a.u.)       :      1.33098
Magnitude (Debye)      :      3.38307

                                *** OPTIMIZATION RUN DONE ***

		     ------------------------------
			                   _   
			                  | |  
			  __ _  ___   __ _| |_ 
			 / _` |/ _ \ / _` | __|
			| (_| | (_) | (_| | |_ 
			 \__, |\___/ \__,_|\__|
			 __/ |                
			|___/                 

		      A Global Optimizer Algorithm
		     ------------------------------

Global parameters
-----------------
  GOAT version                               ... default
  Minimum global steps                       ... 3
  Number of base workers                     ... 4
  Split workers by                           ... 2
  Final number of workers                    ... 8
  Number of available CPUs                   ... 1
  Parameter list (worker : temperature)      ...  0 : 2903.97,  1 : 1451.98, 
                                                  2 :  725.99,  3 :  363.00, 
                                                  4 : 2903.97,  5 : 1451.98, 
                                                  6 :  725.99,  7 :  363.00 
  GradComp (mean : sigma)                    ... 1.00 : 0.50
  Number of fragments                        ... 1
  Number of atoms                            ... 17
  Flexibility parameter                      ... 0.83
  Optimizations per global step              ... 232
  Optimizations per worker                   ... 29

Filtering criteria
------------------
  RMSD                                       ... 0.125 Angs (atom. pos.)
  EnDiff                                     ... 0.100 kcal/mol
  RotConst                                   ... 1.00-2.50 %
  Maximum Conf. Energy                       ... 6.000 kcal/mol

Thermodynamics
--------------
  Ensemble temperature                       ... 298.15 K
  Degeneracy of conformers                   ... 1
  *No rotamers will be included in Gconf

------------------------------------------------------------------------------
   Iter  MinTemp     MaxEn       GradComp    NOpt   NProcs    Output
------------------------------------------------------------------------------
   0     2903.97     51.00    1.00 : 0.50      29        1    t.goat.0.0.out
   1     1451.98     51.00    1.00 : 0.50      29        1    t.goat.0.1.out
   2      725.99     51.00    1.00 : 0.50      29        1    t.goat.0.2.out
   3      363.00     51.00    1.00 : 0.50      29        1    t.goat.0.3.out
   4     2903.97     51.00    1.00 : 0.50      29        1    t.goat.0.4.out
   5     1451.98     51.00    1.00 : 0.50      29        1    t.goat.0.5.out
   6      725.99     51.00    1.00 : 0.50      29        1    t.goat.0.6.out
   7      363.00     51.00    1.00 : 0.50      29        1    t.goat.0.7.out

			     GOAT Global Iter 1
		Iter    Min En       Sconf       Gconf   
		        Hartree      cal/(molK)  kcal/mol
		=========================================

		   1    -28.272552   4.835       -0.826

   0     2903.97     51.00    1.00 : 0.50      29        1    t.goat.1.0.out
   1     1451.98     51.00    1.00 : 0.50      29        1    t.goat.1.1.out
   2      725.99     51.00    1.00 : 0.50      29        1    t.goat.1.2.out
   3      363.00     51.00    1.00 : 0.50      29        1    t.goat.1.3.out
   4     2903.97     51.00    1.00 : 0.50      29        1    t.goat.1.4.out
   5     1451.98     51.00    1.00 : 0.50      29        1    t.goat.1.5.out
   6      725.99     51.00    1.00 : 0.50      29        1    t.goat.1.6.out
   7      363.00     51.00    1.00 : 0.50      29        1    t.goat.1.7.out

			     GOAT Global Iter 2
		Iter    Min En       Sconf       Gconf   
		        Hartree      cal/(molK)  kcal/mol
		=========================================

		   1    -28.272552   4.835       -0.826
		   2    -28.272552   5.177       -0.883

   0     2903.97     51.00    1.00 : 0.50      29        1    t.goat.2.0.out
   1     1451.98     51.00    1.00 : 0.50      29        1    t.goat.2.1.out
   2      725.99     51.00    1.00 : 0.50      29        1    t.goat.2.2.out
   3      363.00     51.00    1.00 : 0.50      29        1    t.goat.2.3.out
   4     2903.97     51.00    1.00 : 0.50      29        1    t.goat.2.4.out
   5     1451.98     51.00    1.00 : 0.50      29        1    t.goat.2.5.out
   6      725.99     51.00    1.00 : 0.50      29        1    t.goat.2.6.out
   7      363.00     51.00    1.00 : 0.50      29        1    t.goat.2.7.out

			     GOAT Global Iter 3
		Iter    Min En       Sconf       Gconf   
		        Hartree      cal/(molK)  kcal/mol
		=========================================

		   1    -28.272552   4.835       -0.826
		   2    -28.272552   5.177       -0.883
		   3    -28.272552   5.419       -0.909

		Global minimum found!
		Writing structure to t.globalminimum.xyz

		# Final ensemble info #
		Conformer     Energy     Degen.   % total   % cumul.  
		              (kcal/mol)
		------------------------------------------------------
		        0     0.000	     1      21.56      21.56
		        1     0.273	     1      13.60      35.17
		        2     0.329	     1      12.38      47.54
		        3     0.572	     1       8.22      55.76
		        4     0.682	     1       6.82      62.58
		        5     0.872	     1       4.95      67.53
		        6     1.039	     1       3.73      71.26
		        7     1.100	     1       3.37      74.62
		        8     1.128	     1       3.21      77.84
		        9     1.249	     1       2.62      80.46
		       10     1.340	     1       2.25      82.70
		       11     1.350	     1       2.21      84.91
		       12     1.382	     1       2.09      87.00
		       13     1.457	     1       1.84      88.85
		       14     1.469	     1       1.81      90.66
		       15     1.672	     1       1.28      91.94
		       16     1.696	     1       1.23      93.17
		       17     1.784	     1       1.06      94.23
		       18     1.885	     1       0.90      95.13
		       19     2.094	     1       0.63      95.76
		       20     2.154	     1       0.57      96.33
		       21     2.282	     1       0.46      96.78
		       22     2.354	     1       0.41      97.19
		       23     2.434	     1       0.35      97.55
		       24     2.477	     1       0.33      97.88
		       25     2.492	     1       0.32      98.20
		       26     2.635	     1       0.25      98.45
		       27     2.691	     1       0.23      98.68
		       28     3.004	     1       0.14      98.81
		       29     3.033	     1       0.13      98.94
		       30     3.052	     1       0.12      99.07
		       31     3.079	     1       0.12      99.19
		       32     3.099	     1       0.12      99.30
		       33     3.145	     1       0.11      99.41
		       34     3.158	     1       0.10      99.51
		       35     3.201	     1       0.10      99.61
		       36     3.277	     1       0.09      99.70
		       37     3.631	     1       0.05      99.74
		       38     3.772	     1       0.04      99.78
		       39     3.897	     1       0.03      99.81
		       40     3.953	     1       0.03      99.84
		       41     3.961	     1       0.03      99.87
		       42     4.079	     1       0.02      99.89
		       43     4.114	     1       0.02      99.91
		       44     4.255	     1       0.02      99.92
		       45     4.304	     1       0.02      99.94
		       46     4.429	     1       0.01      99.95
		       47     4.665	     1       0.01      99.96
		       48     4.668	     1       0.01      99.97
		       49     4.784	     1       0.01      99.98
		       50     4.838	     1       0.01      99.98
		       51     5.107	     1       0.00      99.99
		       52     5.118	     1       0.00      99.99
		       53     5.277	     1       0.00      99.99
		       54     5.300	     1       0.00      99.99
		       55     5.447	     1       0.00     100.00
		       56     5.863	     1       0.00     100.00
		       57     5.953	     1       0.00     100.00
		       58     5.994	     1       0.00     100.00

		Conformers below 3 kcal/mol: 28
		Lowest energy conformer    : -28.272552 Eh
		Sconf at 298.15 K          :  5.42 cal/(molK)
		Gconf at 298.15 K          : -0.91 kcal/mol

		Writing final ensemble to t.finalensemble.xyz

--------------------------------
SUGGESTED CITATIONS FOR THIS RUN
--------------------------------

Below you find a list of papers that are relevant to this ORCA run
We neither can nor want to force you to cite these papers, but we appreciate if you do
You receive ORCA, which is the product of decades of hard work by many enthusiastic individuals, for free
The only thing we kindly ask in return is that you cite our papers,
We deeply appreciate it, if you show your appreciation for ORCA by not just citing the generic ORCA reference.

Please note that relegating all ORCA citations to the supporting information does *not* help us.
SI sections are not indexed - citations you put there will not count into any citation statistics
But we need these citations in order to attract the funding resources that allow us to do what we are doing

Therefore, if you are a happy ORCA user, please consider citing a few of the papers listed below in the main body of your paper

In addition to the list printed below, the program has created the file t.bibtex that contains the list in bibtex format
You can import this file easily into all common literature databanks and citation aid programs


List of essential papers. We consider these as the minimum necessary citations

  1. Bannwarth, C.; Ehlert, S.; Grimme, S.
     GFN2-xTB—An Accurate and Broadly Parametrized Self-Consistent Tight-Binding Quantum Chemical Method with Multipole Electrostatics and Density-Dependent Dispersion Contributions
     J. Chem. Theory Comput. 2019 15(3), 1652-1671
     doi.org/10.1021/acs.jctc.8b01176
  2. Neese, F.
     Software update: the ORCA program system, version 6.0
     WIRES Comput. Molec. Sci. 2025 15(1), e70019
     doi.org/10.1002/wcms.7019
  3. de Souza, B.
     GOAT: A Global Optimization Algorithm for Molecules and Atomic Clusters
     Angewandte Chemie 2025 64(18), e202500393
     doi.org/10.1002/anie.202500393

List of papers to cite with high priority. The work reported in these papers was absolutely
necessary for this run to complete.
Our perspective: the developers of density functionals and basis sets usually get cited in chemistry papers
Good! But without the algorithms to do something with them, the functionals or basis sets would not do anything.
Hence, in our opinion, the algorithm design and method developments papers are equally worthy of getting cited

  1. Bannwarth, C.; Caldeweyher, E.; Ehlert, S.; Hansen, A.; Pracht, P.; Seibert, J.; Spicher, S.; Grimme, S.
     Extended tight-binding quantum chemistry methods
     WIRES Comput. Molec. Sci. 2020 11(2), e1493
     doi.org/10.1002/wcms.1493

List of suggested additional citations. These are papers that are important in the 'surrounding' of 
of this run, or papers that preceded the highly important papers. If you like your results we are grateful for a citation.

  1. Neese, F.
     The ORCA program system
     WIRES Comput. Molec. Sci. 2012 2(1), 73-78
     doi.org/10.1002/wcms.81
  2. Neese, F.
     Software update: the ORCA program system, version 4.0
     WIRES Comput. Molec. Sci. 2018 8(1), 1-6
     doi.org/10.1002/wcms.1327
  3. Neese, F.; Wennmohs, F.; Becker, U.; Riplinger, C.
     The ORCA quantum chemistry program package
     J. Chem. Phys. 2020 152(22), 224108
     doi.org/10.1063/5.0004608
  4. Neese, F.
     Software update: The ORCA program system—Version 5.0
     WIRES Comput. Molec. Sci. 2022 12(1), e1606
     doi.org/10.1002/wcms.1606

List of optional additional citations

  1. Neese, F.
     Approximate second-order SCF convergence for spin unrestricted wavefunctions
     Chem. Phys. Lett. 2000 325(1-3), 93-98
     doi.org/10.1016/s0009-2614(00)00662-x

Timings for individual modules:

Sum of individual times          ...      645.563 sec (=  10.759 min)
Geometry relaxation              ...        0.022 sec (=   0.000 min)   0.0 %
GOAT                             ...      645.301 sec (=  10.755 min) 100.0 %
XTB module                       ...        0.240 sec (=   0.004 min)   0.0 %
                             ****ORCA TERMINATED NORMALLY****
TOTAL RUN TIME: 0 days 0 hours 10 minutes 45 seconds 619 msec
