
                                 *****************
                                 * O   R   C   A *
                                 *****************

                                            #,                                       
                                            ###                                      
                                            ####                                     
                                            #####                                    
                                            ######                                   
                                           ########,                                 
                                     ,,################,,,,,                         
                               ,,#################################,,                 
                          ,,##########################################,,             
                       ,#########################################, ''#####,          
                    ,#############################################,,   '####,        
                  ,##################################################,,,,####,       
                ,###########''''           ''''###############################       
              ,#####''   ,,,,##########,,,,          '''####'''          '####       
            ,##' ,,,,###########################,,,                        '##       
           ' ,,###''''                  '''############,,,                           
         ,,##''                                '''############,,,,        ,,,,,,###''
      ,#''                                            '''#######################'''  
     '                                                          ''''####''''         
             ,#######,   #######,   ,#######,      ##                                
            ,#'     '#,  ##    ##  ,#'     '#,    #''#        ,####,    ,#,          
            ##       ##  ##   ,#'  ##            #'  '#       #'       ,# #          
            ##       ##  #######   ##           ,######,      #####,      #          
            '#,     ,#'  ##    ##  '#,     ,#' ,#      #,     #,   #      #          
             '#######'   ##     ##  '#######'  #'      '#     '####' #    #          



                #########################################################
                #                        -***-                          #
                #          Department of theory and spectroscopy        #
                #                                                       #
                #                      Frank Neese                      #
                #                                                       #
                #     Directorship, Architecture, Infrastructure        #
                #                    SHARK, DRIVERS                     #
                #        Core code/Algorithms in most modules           #
                #                                                       #
                #        Max Planck Institute fuer Kohlenforschung      #
                #                Kaiser Wilhelm Platz 1                 #
                #                 D-45470 Muelheim/Ruhr                 #
                #                      Germany                          #
                #                                                       #
                #                  All rights reserved                  #
                #                        -***-                          #
                #########################################################


                         Program Version 6.1.0  -  RELEASE   -
                                (GIT: $679e74b$)
                          ($2025-06-10 18:02:51 +0200$)


 With contributions from (in alphabetic order):
[Max-Planck-Institut fuer Kohlenforschung]                               
  Daniel Aravena         : Magnetic Suceptibility                        
  Michael Atanasov       : Ab Initio Ligand Field Theory (pilot matlab implementation)
  Alexander A. Auer      : GIAO ZORA, VPT2 properties, NMR spectrum      
  Ute Becker             : All parallelization in ORCA, NUMFREQ, NUMCALC 
  Giovanni Bistoni       : ED, misc. LED, open-shell LED, HFLD           
  Dmytro Bykov           : pre 5.0 version of the SCF Hessian            
  Marcos Casanova-Páez   : Triplet and SCS-CIS(D). UHF-(DLPNO)-IP/EA/STEOM-CCSD. UHF-CVS-IP/STEOM-CCSD   
  Vijay G. Chilkuri      : MRCI spin determinant printing, contributions to CSF-ICE 
  Pauline Colinet        : FMM embedding                                 
  Dipayan Datta          : RHF DLPNO-CCSD density                        
  Achintya Kumar Dutta   : EOM-CC, STEOM-CC                              
  Nicolas Foglia         : Exact transition moments, OPA infrastructure, MCD improvements    
  Dmitry Ganyushin       : Spin-Orbit,Spin-Spin,Magnetic field MRCI      
  Miquel Garcia-Rates    : C-PCM and meta-GGA Hessian, CCSD/C-PCM, Gaussian charge scheme 
  Tiago L. C. Gouveia    : GS-ROHF, GS-ROCIS                             
  Yang Guo               : DLPNO-NEVPT2, F12-NEVPT2, CIM, IAO-localization        
  Andreas Hansen         : Spin unrestricted coupled pair/coupled cluster methods 
  Ingolf Harden          : AUTO-CI MPn and infrastructure                
  Benjamin Helmich-Paris : MC-RPA, TRAH-(SCF,CASSCF), AVAS, COSX integrals, SCF dyn. polar., MC-PDFT, srDFT 
  Lee Huntington         : MR-EOM, pCC                                   
  Robert Izsak           : Overlap fitted RIJCOSX, COSX-SCS-MP3, EOM     
  Riya Kayal             : Wick's Theorem for AUTO-CI, AUTO-CI UHF-CCSDT 
  Emily Kempfer          : AUTO-CI RHF CISDT and CCSDT, approximate NEVPT4
  Christian Kollmar      : KDIIS, OOCD, Brueckner-CCSD(T), CCSD density, CASPT2, CASPT2-K, improved NEVPT2 
  Axel Koslowski         : Symmetry handling                             
  Simone Kossmann        : meta-GGA functionals, TD-DFT gradient, OOMP2, (MP2 Hessian; deprecated post 5.0) 
  Lucas Lang             : DCDCAS, Hyperfine gauge corrections, ICE-SOC+SSC
  Marvin Lechner         : AUTO-CI (C++ implementation), FIC-MRCC        
  Spencer Leger          : CASSCF response                               
  Dagmar Lenk            : GEPOL surface, SMD, ORCA-2-JSON               
  Dimitrios Liakos       : Extrapolation schemes; Compound Job, Property file
  Dimitrios Manganas     : Further ROCIS development; embedding schemes. LFT, Crystal Embedding 
  Dimitrios Pantazis     : SARC Basis sets                               
  Anastasios Papadopoulos: AUTO-CI, single reference methods and gradients 
  Taras Petrenko         : pre 6.0 DFT Hessian and TD-DFT gradient,  ECA, NRVS 
  Petra Pikulova         : Analytic Raman intensities                    
  Peter Pinski           : DLPNO-MP2, DLPNO-MP2 Gradient                 
  Shashank Vittal Rao    : ES-AILFT, MagRelax                            
  Christoph Reimann      : Effective Core Potentials                     
  Marius Retegan         : Local ZFS, SOC                                
  Christoph Riplinger    : Optimizer, TS searches, QM/MM, DLPNO-CCSD(T), (RO)-DLPNO pert. Triples 
  Michael Roemelt        : Original ROCIS implementation, recursive CI coupling coefficients
  Masaaki Saitow         : Open-shell DLPNO-CCSD energy and density      
  Barbara Sandhoefer     : DKH picture change effects                    
  Yorick L. A. Schmerwitz: GMF and freeze-and-release deltaSCF, NEB S-IDPP initial path                    
  Kantharuban Sivalingam : CASSCF convergence/infrastructure, NEVPT2, NEVPT3, NEVPT4(SD), FIC-MRCI and CEPA variants
  Bernardo de Souza      : ESD, SOC TD-DFT                               
  Georgi L. Stoychev     : AutoAux, RI-MP2 NMR, DLPNO-MP2 response, X2C  
  Van Anh Tran           : RI-MP2 g-tensors                              
  Willem Van den Heuvel  : Paramagnetic NMR                              
  Zikuan Wang            : NOTCH, Electric field optimization            
  Frank Wennmohs         : Technical directorship and infrastructure     
  Hang Xu                : AUTO-CI-Response properties                   
                                                                         
[FACCTs GmbH]                                                            
  Markus Bursch, Nicolas Foglia, Miquel Garcia-Rates, Ingolf Harden, Hagen Neugebauer, Anastasios Papadopoulos, 
  Christoph Riplinger, Bernardo de Souza, Georgi L. Stoychev                                                    
                                                                 
  APM, various basis sets, CI-OPT, improved COSX, DLPNO-Multilevel,           
  DOCKER, DRACO, updates on ESD, Fragmentator, GOAT, IRC, LR-CPCM, L-BFGS, MBIS, meta-GGA TD-DFT gradient, ML-optimized integration grids, 
  MM, NACMEs, nearIR, NEB, NEB-TS, NL-DFT gradient (VV10), 2- and 3-layer-ONIOM, interface openCOSMO-RS, QMMM,   
  Crystal-QMMM, RESP, rigid body optimization, SF, symmetry and pop. for TD-DFT, various functionals, SOLVATOR                                   
                                                                         
[Other institutions]                                                     
  V. Asgeirsson          : NEB                                           
  Christoph Bannwarth    : sTDA-DFT, sTD-DFT, PBEh-3c, B97-3c, D3        
  Giovanni Bistoni       : ETS/NOCV, ADLD/ADEX, COVALED                  
  Martin Brehm           : Molecular dynamics                            
  Ronald Cardenas        : ETS/NOCV                                      
  Martina Colucci        : COVALED                                       
  Sebastian Ehlert       : rSCAN, r2SCAN, r2SCAN-3c, D4, dhf basis sets  
  Marvin Friede          : D4 for Fr, Ra, Ac-Lr                          
  Lars Goerigk           : TD-DFT with DH, B97 family of functionals     
  Stefan Grimme          : VdW corrections, initial TS optimization, DFT functionals, gCP, sTDA/sTD-DF 
  Waldemar Hujo          : DFT-NL                                        
  H. Jonsson             : NEB                                           
  Holger Kruse           : gCP                                           
  Marcel Mueller         : wB97X-3c, vDZP basis set                      
  Hagen Neugebauer       : wr2SCAN, Native XTB                           
  Gianluca Regni         : ADLD/ADEX                                     
  Tobias Risthaus        : pre 6.0 range-separated hybrid DFT and stability analysis
  Lukas Wittmann         : regularized MP2, r2SCAN double-hybrids, wr2SCAN        
                                                                         
We gratefully acknowledge several colleagues who have allowed us to      
interface, adapt or use parts of their codes:                            
  Ed Valeev, F. Pavosevic, A. Kumar             : LibInt (2-el integral package), F12 methods 
  Garnet Chan, S. Sharma, J. Yang, R. Olivares  : DMRG                   
  Ulf Ekstrom                                   : XCFun DFT Library      
  Mihaly Kallay                                 : mrcc  (arbitrary order and MRCC methods)
  Frank Weinhold                                : gennbo (NPA and NBO analysis)           
  Simon Mueller                                 : openCOSMO-RS                            
  Christopher J. Cramer and Donald G. Truhlar   : smd solvation model                     
  S Lehtola, MJT Oliveira, MAL Marques          : LibXC Library                           
  Liviu Ungur et al                             : ANISO software                          


 Your calculation uses the libint2 library for the computation of 2-el integrals
 For citations please refer to: http://libint.valeyev.net

 Your ORCA version has been built with support for libXC version: 7.0.0
 For citations please refer to: https://libxc.gitlab.io

 This ORCA versions uses:
   CBLAS   interface :  Fast vector & matrix operations
   LAPACKE interface :  Fast linear algebra routines
   SCALAPACK package :  Parallel linear algebra routines
   Shared memory     :  Shared parallel matrices
   BLAS/LAPACK       :  OpenBLAS 0.3.29  USE64BITINT DYNAMIC_ARCH NO_AFFINITY Haswell SINGLE_THREADED
        Core in use  :  Haswell
   Copyright (c) 2011-2014, The OpenBLAS Project


  ***********************************
  * Starting time: Wed Aug 13 11:56:25 2025
  * Host name:     CHEMLAB02
  * Process ID:    1529954
  * Working dir.:  /home/vivek/mm-project/vivek/B97-D/a/2
  ***********************************



***************************************
The coordinates will be read from file: /home/vivek/mm-project/vivek/xtb-goat/a/A_CONF/2.xyz
***************************************


Your calculation utilizes empirical dispersion correction


Warning: RI is on but no J-basis has been assigned. Assigning Def2/J (nothing to worry about!)
================================================================================

----- Orbital basis set information -----
Your calculation utilizes the basis: 6-31G**
   H-He, Li-Ne : W. J. Hehre, R. Ditchfield and J.A. Pople, J. Chem. Phys. 56, 2257 (1972).
                 Note: He and Ne are unpublished basis sets taken from the Gaussian program.
                 Note: Li and B from J. D. Dill and J. A. Pople, J. Chem. Phys. 62, 2921 (1975).
   Na - Ar     : M. M. Francl, W. J. Pietro, W. J. Hehre, J. S. Binkley, M. S. Gordon, 
                 D. J. DeFrees and J. A. Pople, J. Chem. Phys. 77, 3654 (1982).
   K - Zn      : V. A. Rassolov, J. A. Pople, M. A. Ratner, and T. L. Windus, J. Chem. Phys. 109, 1223 (1998).

----- AuxJ basis set information -----
Your calculation utilizes the auxiliary basis: def2/J
   H-Rn: F. Weigend, Phys. Chem. Chem. Phys. 8, 1057 (2006).
   Fr-Lr: K. Eichkorn, F. Weigend, O. Treutler, R. Ahlrichs; Theor. Chem. Acc. 97, 119 (1997).

================================================================================
                                        WARNINGS
                       Please study these warnings very carefully!
================================================================================


INFO   : The exchange functional is Grimme's B97(-D)
         As described in S. Grimme, J. Comput. Chem. 27, 1787 (2006).
         Note that this functional defaults to a pure GGA. 

INFO   : The correlation functional is Grimme's B97(-D)
         As described in S. Grimme, J. Comput. Chem. 27, 1787 (2006).

================================================================================
                                       INPUT FILE
================================================================================
NAME = 2.inp
|  1> ! B97-D 6-31G** 
|  2> 
|  3> * xyzfile 0 1 /home/vivek/mm-project/vivek/xtb-goat/a/A_CONF/2.xyz
|  4> 
|  5>                          ****END OF INPUT****
================================================================================

                       ****************************
                       * Single Point Calculation *
                       ****************************

---------------------------------
CARTESIAN COORDINATES (ANGSTROEM)
---------------------------------
  C     -4.497872   -0.416814   -2.328296
  O     -3.700441   -1.161700   -2.830485
  O     -4.170149    0.812474   -1.904075
  C     -5.986190   -0.685164   -2.163439
  H     -3.227341    0.985922   -2.054038
  N     -6.787315    0.109593   -3.079692
  H     -6.177391   -1.742791   -2.354182
  H     -6.284264   -0.433612   -1.142838
  H     -6.626129    1.098294   -2.918130
  H     -6.536400   -0.100248   -4.040360

----------------------------
CARTESIAN COORDINATES (A.U.)
----------------------------
  NO LB      ZA    FRAG     MASS         X           Y           Z
   0 C     6.0000    0    12.011   -8.499746   -0.787665   -4.399842
   1 O     8.0000    0    15.999   -6.992819   -2.195295   -5.348842
   2 O     8.0000    0    15.999   -7.880439    1.535353   -3.598180
   3 C     6.0000    0    12.011  -11.312260   -1.294772   -4.088307
   4 H     1.0000    0     1.008   -6.098791    1.863123   -3.881570
   5 N     7.0000    0    14.007  -12.826166    0.207101   -5.819774
   6 H     1.0000    0     1.008  -11.673577   -3.293398   -4.448758
   7 H     1.0000    0     1.008  -11.875539   -0.819409   -2.159650
   8 H     1.0000    0     1.008  -12.521570    2.075474   -5.514466
   9 H     1.0000    0     1.008  -12.352006   -0.189441   -7.635174

--------------------------------
INTERNAL COORDINATES (ANGSTROEM)
--------------------------------
 C      0   0   0     0.000000000000     0.00000000     0.00000000
 O      1   0   0     1.201226429414     0.00000000     0.00000000
 O      1   2   0     1.341087482016   122.57673403     0.00000000
 C      1   2   3     1.521275911867   125.83022694   176.17497629
 H      3   1   2     0.970288396710   110.63524765   359.38325153
 N      4   1   2     1.453601773859   111.98953360   252.80846964
 H      4   1   2     1.091566003594   108.86527061    13.21790075
 H      4   1   2     1.092589985657   109.11825591   133.02382938
 H      6   4   1     1.014697912802   110.17155345   300.30157319
 H      6   4   1     1.014827775070   110.32671133    59.74734850

---------------------------
INTERNAL COORDINATES (A.U.)
---------------------------
 C      0   0   0     0.000000000000     0.00000000     0.00000000
 O      1   0   0     2.269988976421     0.00000000     0.00000000
 O      1   2   0     2.534288062640   122.57673403     0.00000000
 C      1   2   3     2.874794847559   125.83022694   176.17497629
 H      3   1   2     1.833579340703   110.63524765   359.38325153
 N      4   1   2     2.746909260375   111.98953360   252.80846964
 H      4   1   2     2.062760803891   108.86527061    13.21790075
 H      4   1   2     2.064695849557   109.11825591   133.02382938
 H      6   4   1     1.917501163858   110.17155345   300.30157319
 H      6   4   1     1.917746567979   110.32671133    59.74734850

---------------------
BASIS SET INFORMATION
---------------------
There are 4 groups of distinct atoms

 Group   1 Type C   : 10s4p1d contracted to 3s2p1d pattern {631/31/1}
 Group   2 Type O   : 10s4p1d contracted to 3s2p1d pattern {631/31/1}
 Group   3 Type H   : 4s1p contracted to 2s1p pattern {31/1}
 Group   4 Type N   : 10s4p1d contracted to 3s2p1d pattern {631/31/1}

Atom   0C    basis set group =>   1
Atom   1O    basis set group =>   2
Atom   2O    basis set group =>   2
Atom   3C    basis set group =>   1
Atom   4H    basis set group =>   3
Atom   5N    basis set group =>   4
Atom   6H    basis set group =>   3
Atom   7H    basis set group =>   3
Atom   8H    basis set group =>   3
Atom   9H    basis set group =>   3
---------------------------------
AUXILIARY/J BASIS SET INFORMATION
---------------------------------
There are 4 groups of distinct atoms

 Group   1 Type C   : 12s5p4d2f1g contracted to 6s4p3d1f1g pattern {711111/2111/211/2/1}
 Group   2 Type O   : 12s5p4d2f1g contracted to 6s4p3d1f1g pattern {711111/2111/211/2/1}
 Group   3 Type H   : 5s2p1d contracted to 3s1p1d pattern {311/2/1}
 Group   4 Type N   : 12s5p4d2f1g contracted to 6s4p3d1f1g pattern {711111/2111/211/2/1}

Atom   0C    basis set group =>   1
Atom   1O    basis set group =>   2
Atom   2O    basis set group =>   2
Atom   3C    basis set group =>   1
Atom   4H    basis set group =>   3
Atom   5N    basis set group =>   4
Atom   6H    basis set group =>   3
Atom   7H    basis set group =>   3
Atom   8H    basis set group =>   3
Atom   9H    basis set group =>   3
------------------------------------------------------------------------------
                             ORCA STARTUP CALCULATIONS
                           -- RI-GTO INTEGRALS CHOSEN --
------------------------------------------------------------------------------
------------------------------------------------------------------------------
                   ___                                                        
                  /   \      - P O W E R E D   B Y -                         
                 /     \                                                     
                 |  |  |   _    _      __       _____    __    __             
                 |  |  |  | |  | |    /  \     |  _  \  |  |  /  |          
                  \  \/   | |  | |   /    \    | | | |  |  | /  /          
                 / \  \   | |__| |  /  /\  \   | |_| |  |  |/  /          
                |  |  |   |  __  | /  /__\  \  |    /   |      \           
                |  |  |   | |  | | |   __   |  |    \   |  |\   \          
                \     /   | |  | | |  |  |  |  | |\  \  |  | \   \       
                 \___/    |_|  |_| |__|  |__|  |_| \__\ |__|  \__/        
                                                                              
                      - O R C A' S   B I G   F R I E N D -                    
                                      &                                       
                       - I N T E G R A L  F E E D E R -                       
                                                                              
 v1 FN, 2020, v2 2021, v3 2022-2024                                           
------------------------------------------------------------------------------


----------------------
SHARK INTEGRAL PACKAGE
----------------------

Number of atoms                             ...     10
Number of basis functions                   ...     95
Number of shells                            ...     45
Maximum angular momentum                    ...      2
Integral batch strategy                     ... SHARK/LIBINT Hybrid
RI-J (if used) integral strategy            ... SPLIT-RIJ (Revised 2003 algorithm where possible)
Printlevel                                  ...      1
Contraction scheme used                     ... SEGMENTED contraction
Prescreening option                         ... SCHWARTZ
   Thresh                                   ... 1.000e-10
   Tcut                                     ... 1.000e-11
   Tpresel                                  ... 1.000e-11 
Coulomb Range Separation                    ... NOT USED
Exchange Range Separation                   ... NOT USED
Multipole approximations                    ... NOT USED
Finite Nucleus Model                        ... NOT USED
CABS basis                                  ... NOT available
Auxiliary Coulomb fitting basis             ... AVAILABLE
   # of basis functions in Aux-J            ...    300
   # of shells in Aux-J                     ...    100
   Maximum angular momentum in Aux-J        ...      4
Auxiliary J/K fitting basis                 ... NOT available
Auxiliary Correlation fitting basis         ... NOT available
Auxiliary 'external' fitting basis          ... NOT available

Checking pre-screening integrals            ... done (  0.0 sec) Dimension = 45
   => SHARK Basis and OBASIS are compatible. Storing Pre-screening
Shell pair information
Shell pair cut-off parameter TPreSel        ...   1.0e-11
Total number of shell pairs                 ...      1035
Shell pairs after pre-screening             ...      1012
Total number of primitive shell pairs       ...      5170
Primitive shell pairs kept                  ...      3720
          la=0 lb=0:    314 shell pairs
          la=1 lb=0:    366 shell pairs
          la=1 lb=1:    118 shell pairs
          la=2 lb=0:    124 shell pairs
          la=2 lb=1:     75 shell pairs
          la=2 lb=2:     15 shell pairs

Checking whether 4 symmetric matrices of dimension 95 fit in memory
:Max Core in MB      =   4096.00
 MB in use           =      4.70
 MB left             =   4091.30
 MB needed           =      0.14
 Data fit in memory  = YES
Calculating RI/J V-Matrix + Cholesky decomp.... done (  0.0 sec)
Calculating Nuclear repulsion               ... done (  0.0 sec) ENN=    180.288582198048 Eh

Diagonalization of the overlap matrix:
Smallest eigenvalue                        ... 5.323e-03
Time for diagonalization                   ...    0.001 sec
Threshold for overlap eigenvalues          ... 1.000e-07
Number of eigenvalues below threshold      ... 0
Time for construction of square roots      ...    0.000 sec
Total time needed                          ...    0.001 sec

-------------------
DFT GRID GENERATION
-------------------

General Integration Accuracy     IntAcc      ... 4.388
Radial Grid Type                 RadialGrid  ... OptM3 with GC (2021)
Angular Grid (max. ang.)         AngularGrid ... 4 (Lebedev-302)
Angular grid pruning method      GridPruning ... 4 (adaptive)
Weight generation scheme         WeightScheme... mBecke (2022)
Basis function cutoff            BFCut       ... 1.0000e-10
Integration weight cutoff        WCut        ... 1.0000e-14
Partially contracted basis set               ... off
Rotationally invariant grid construction     ... off
Angular grids for H and He will be reduced by one unit

Total number of grid points                  ...    46589
Total number of batches                      ...      734
Average number of points per batch           ...       63
Average number of grid points per atom       ...     4659
Grids setup in   0.1 sec
Initializing property integral containers    ... done (  0.0 sec)

SHARK setup successfully completed in   0.2 seconds

Maximum memory used throughout the entire STARTUP-calculation: 19.8 MB
-------------------------------------------------------------------------------
                                 ORCA GUESS
                   Start orbitals & Density for SCF / CASSCF
-------------------------------------------------------------------------------

------------
SCF SETTINGS
------------
Hamiltonian:
 Density Functional     Method          .... DFT(GTOs)
 Exchange Functional    Exchange        .... B97(D)
 Correlation Functional Correlation     .... B97(D)
 Gradients option       PostSCFGGA      .... off
 RI-approximation to the Coulomb term is turned on
   Number of AuxJ basis functions       .... 300


General Settings:
 Integral files         IntName         .... 2
 Hartree-Fock type      HFTyp           .... RHF
 Total Charge           Charge          ....    0
 Multiplicity           Mult            ....    1
 Number of Electrons    NEL             ....   40
 Basis Dimension        Dim             ....   95
 Nuclear Repulsion      ENuc            ....    180.2885821980 Eh

Convergence Acceleration:
 AO-DIIS                CNVDIIS         .... on
   Start iteration      DIISMaxIt       ....    12
   Startup error        DIISStart       ....  0.200000
   # of expansion vecs  DIISMaxEq       ....     5
   Bias factor          DIISBfac        ....   1.050
   Max. coefficient     DIISMaxC        ....  10.000
 MO-DIIS                CNVKDIIS        .... off
 Trust-Rad. Augm. Hess. CNVTRAH         .... auto
   Auto Start mean grad. ratio tolernc. ....  1.125000
   Auto Start start iteration           ....    50
   Auto Start num. interpolation iter.  ....    10
   Max. Number of Micro iterations      ....    24
   Max. Number of Macro iterations      .... Maxiter - #DIIS iter
   Number of Davidson start vectors     ....     2
   Converg. threshold    (grad. norm)   ....   5.000e-05
   Grad. Scal. Fac. for Micro threshold ....   0.100
   Minimum threshold for Micro iter.    ....   1.000e-02
   NR start threshold (gradient norm)   ....   1.000e-04
   Initial trust radius                 ....   0.400
   Minimum AH scaling param. (alpha)    ....   1.000
   Maximum AH scaling param. (alpha)    .... 1000.000
   Quad. conv. algorithm                .... NR
   White noise on init. David. guess    .... on
   Maximum white noise                  ....   0.010
   Pseudo random numbers                .... off
   Inactive MOs                         .... canonical
   Orbital update algorithm             .... Taylor
   Preconditioner                       .... Diag
   Full preconditioner red. dimension   ....   250
 SOSCF                 CNVSOSCF           .... on
   Start iteration     SOSCFMaxIt         ....   150
   Startup grad/error  SOSCFStart         ....  0.003300
   Hessian update      SOSCFHessUp        .... L-BFGS
   Autom. constraints  SOSCFAutoConstrain .... off
 Level Shifting         CNVShift        .... on
   Level shift para.    LevelShift      ....    0.2500
   Turn off err/grad.   ShiftErr        ....    0.0010
 Zerner damping         CNVZerner       .... off
 Static damping         CNVDamp         .... on
   Fraction old density DampFac         ....    0.7000
   Max. Damping (<1)    DampMax         ....    0.9800
   Min. Damping (>=0)   DampMin         ....    0.0000
   Turn off err/grad.   DampErr         ....    0.1000

SCF Procedure:
 Maximum # iterations   MaxIter         ....   125
 SCF integral mode      SCFMode         .... Direct
   Integral package                     .... SHARK and LIBINT hybrid scheme
 Reset frequency        DirectResetFreq ....    20
 Integral Threshold     Thresh          ....  1.000e-10 Eh
 Primitive CutOff       TCut            ....  1.000e-11 Eh

Convergence Tolerance:
 Convergence Check Mode ConvCheckMode   .... Total+1el-Energy
 Convergence forced     ConvForced      .... 0
 Energy Change          TolE            ....  1.000e-06 Eh
 1-El. energy change                    ....  1.000e-03 Eh
 Orbital Gradient       TolG            ....  5.000e-05
 Orbital Rotation angle TolX            ....  5.000e-05
 DIIS Error             TolErr          ....  1.000e-06

------------------------------
INITIAL GUESS: MODEL POTENTIAL
------------------------------
Loading Hartree-Fock densities                     ... done
Calculating cut-offs                               ... done
Initializing the effective Hamiltonian             ... done
Setting up the integral package (SHARK)            ... done
Starting the Coulomb interaction                   ... done (   0.0 sec)
Making the grid                                    ... done (   0.0 sec)
Mapping shells                                     ... done
Starting the XC term evaluation                    ... done (   0.0 sec)
  promolecular density results
     # of electrons  =     39.998980687
     EX              =    -34.195499104
     EC              =     -1.792919421
     EX+EC           =    -35.988418525
Transforming the Hamiltonian                       ... done (   0.0 sec)
Diagonalizing the Hamiltonian                      ... done (   0.0 sec)
Back transforming the eigenvectors                 ... done (   0.0 sec)
Now organizing SCF variables                       ... done
                      ------------------
                      INITIAL GUESS DONE (   0.1 sec)
                      ------------------
             **** ENERGY FILE WAS UPDATED (2.en.tmp) ****
Finished Guess after   0.1 sec
Maximum memory used throughout the entire GUESS-calculation: 8.1 MB

-------------------------------------------------------------------------------------------
                                      ORCA LEAN-SCF
                              memory conserving SCF solver
-------------------------------------------------------------------------------------------

----------------------------------------D-I-I-S--------------------------------------------
Iteration    Energy (Eh)           Delta-E    RMSDP     MaxDP     DIISErr   Damp  Time(sec)
-------------------------------------------------------------------------------------------
               ***  Starting incremental Fock matrix formation  ***
    1    -284.0191402871038235     0.00e+00  5.76e-03  1.05e-01  2.59e-01  0.700   0.1
    2    -284.1336269162756025    -1.14e-01  3.43e-03  5.52e-02  9.27e-02  0.700   0.1
                               ***Turning on AO-DIIS***
    3    -284.1662079436692352    -3.26e-02  1.22e-03  1.46e-02  3.25e-02  0.700   0.1
    4    -284.1885452372189889    -2.23e-02  1.58e-03  1.76e-02  1.32e-02  0.000   0.1
    5    -284.2414263050275736    -5.29e-02  5.83e-04  7.44e-03  1.22e-02  0.000   0.1
    6    -284.2419487106938618    -5.22e-04  2.08e-04  2.33e-03  3.57e-03  0.000   0.1
                              *** Initializing SOSCF ***
---------------------------------------S-O-S-C-F--------------------------------------
Iteration    Energy (Eh)           Delta-E    RMSDP     MaxDP     MaxGrad    Time(sec)
--------------------------------------------------------------------------------------
    7    -284.2419948141571808    -4.61e-05  7.56e-05  9.28e-04  9.72e-04     0.1
               *** Restarting incremental Fock matrix formation ***
    8    -284.2420002254457927    -5.41e-06  5.52e-05  7.01e-04  1.27e-04     0.1
    9    -284.2420007480082518    -5.23e-07  2.35e-05  3.86e-04  1.39e-04     0.1
                 **** Energy Check signals convergence ****

               *****************************************************
               *                     SUCCESS                       *
               *           SCF CONVERGED AFTER   9 CYCLES          *
               *****************************************************

             **** ENERGY FILE WAS UPDATED (2.en.tmp) ****

----------------
TOTAL SCF ENERGY
----------------

Total Energy       :       -284.24200076967668 Eh           -7734.61806 eV

Components:
Nuclear Repulsion  :        180.28858219804761 Eh            4905.90173 eV
Electronic Energy  :       -464.53058296772429 Eh          -12640.51979 eV
One Electron Energy:       -745.09234760302570 Eh          -20274.99354 eV
Two Electron Energy:        280.56176463530142 Eh            7634.47374 eV

Virial components:
Potential Energy   :       -567.04211906856688 Eh          -15430.00051 eV
Kinetic Energy     :        282.80011829889020 Eh            7695.38244 eV
Virial Ratio       :          2.00509859217690

DFT components:
N(Alpha)           :       20.000003276881 electrons
N(Beta)            :       20.000003276881 electrons
N(Total)           :       40.000006553761 electrons
E(X)               :      -34.934779646748 Eh       
E(C)               :       -1.782644437342 Eh       
E(XC)              :      -36.717424084091 Eh       

---------------
SCF CONVERGENCE
---------------

  Last Energy change         ...    5.2256e-07  Tolerance :   1.0000e-06
  Last MAX-Density change    ...    3.8648e-04  Tolerance :   1.0000e-05
  Last RMS-Density change    ...    2.3483e-05  Tolerance :   1.0000e-06
  Last DIIS Error            ...    9.7239e-04  Tolerance :   1.0000e-06
  Last Orbital Gradient      ...    1.3921e-04  Tolerance :   5.0000e-05
  Last Orbital Rotation      ...    3.7006e-04  Tolerance :   5.0000e-05


----------------
ORBITAL ENERGIES
----------------

  NO   OCC          E(Eh)            E(eV) 
   0   2.0000     -18.814472      -511.9678 
   1   2.0000     -18.751654      -510.2584 
   2   2.0000     -13.998835      -380.9277 
   3   2.0000     -10.028504      -272.8895 
   4   2.0000      -9.944604      -270.6064 
   5   2.0000      -1.020273       -27.7630 
   6   2.0000      -0.930477       -25.3196 
   7   2.0000      -0.818666       -22.2770 
   8   2.0000      -0.647061       -17.6074 
   9   2.0000      -0.559972       -15.2376 
  10   2.0000      -0.460426       -12.5288 
  11   2.0000      -0.435983       -11.8637 
  12   2.0000      -0.414088       -11.2679 
  13   2.0000      -0.409624       -11.1464 
  14   2.0000      -0.361265        -9.8305 
  15   2.0000      -0.343347        -9.3429 
  16   2.0000      -0.334665        -9.1067 
  17   2.0000      -0.274136        -7.4596 
  18   2.0000      -0.237783        -6.4704 
  19   2.0000      -0.190907        -5.1948 
  20   0.0000      -0.020132        -0.5478 
  21   0.0000       0.046676         1.2701 
  22   0.0000       0.081287         2.2119 
  23   0.0000       0.114117         3.1053 
  24   0.0000       0.122684         3.3384 
  25   0.0000       0.153308         4.1717 
  26   0.0000       0.186836         5.0841 
  27   0.0000       0.214171         5.8279 
  28   0.0000       0.283918         7.7258 
  29   0.0000       0.319020         8.6810 
  30   0.0000       0.500890        13.6299 
*Only the first 10 virtual orbitals were printed.

                    ********************************
                    * MULLIKEN POPULATION ANALYSIS *
                    ********************************

-----------------------
MULLIKEN ATOMIC CHARGES
-----------------------
   0 C :    0.473741
   1 O :   -0.411953
   2 O :   -0.458330
   3 C :   -0.124758
   4 H :    0.318573
   5 N :   -0.570472
   6 H :    0.141267
   7 H :    0.133142
   8 H :    0.250976
   9 H :    0.247813
Sum of atomic charges:    0.0000000

--------------------------------
MULLIKEN REDUCED ORBITAL CHARGES
--------------------------------
  0 C s       :     2.995192  s :     2.995192
      pz      :     0.792302  p :     2.406615
      px      :     0.885779
      py      :     0.728534
      dz2     :     0.014305  d :     0.124452
      dxz     :     0.014439
      dyz     :     0.022668
      dx2y2   :     0.046041
      dxy     :     0.026999

  1 O s       :     3.854075  s :     3.854075
      pz      :     1.400717  p :     4.529827
      px      :     1.562156
      py      :     1.566954
      dz2     :     0.005119  d :     0.028051
      dxz     :     0.005252
      dyz     :     0.004802
      dx2y2   :     0.006086
      dxy     :     0.006792

  2 O s       :     3.817815  s :     3.817815
      pz      :     1.746674  p :     4.618095
      px      :     1.402685
      py      :     1.468736
      dz2     :     0.003670  d :     0.022420
      dxz     :     0.001529
      dyz     :     0.005099
      dx2y2   :     0.009002
      dxy     :     0.003121

  3 C s       :     3.220797  s :     3.220797
      pz      :     0.981468  p :     2.853784
      px      :     0.868320
      py      :     1.003996
      dz2     :     0.012607  d :     0.050176
      dxz     :     0.008184
      dyz     :     0.006626
      dx2y2   :     0.016346
      dxy     :     0.006413

  4 H s       :     0.643459  s :     0.643459
      pz      :     0.009332  p :     0.037967
      px      :     0.020864
      py      :     0.007771

  5 N s       :     3.596831  s :     3.596831
      pz      :     1.116640  p :     3.945007
      px      :     1.681618
      py      :     1.146749
      dz2     :     0.008789  d :     0.028634
      dxz     :     0.006621
      dyz     :     0.001631
      dx2y2   :     0.006560
      dxy     :     0.005033

  6 H s       :     0.848003  s :     0.848003
      pz      :     0.002132  p :     0.010731
      px      :     0.002147
      py      :     0.006451

  7 H s       :     0.855836  s :     0.855836
      pz      :     0.006006  p :     0.011022
      px      :     0.002651
      py      :     0.002365

  8 H s       :     0.725191  s :     0.725191
      pz      :     0.004779  p :     0.023833
      px      :     0.007662
      py      :     0.011392

  9 H s       :     0.728307  s :     0.728307
      pz      :     0.011020  p :     0.023880
      px      :     0.007777
      py      :     0.005083



                     *******************************
                     * LOEWDIN POPULATION ANALYSIS *
                     *******************************

----------------------
LOEWDIN ATOMIC CHARGES
----------------------
   0 C :    0.094723
   1 O :   -0.217729
   2 O :   -0.150140
   3 C :   -0.087047
   4 H :    0.181107
   5 N :   -0.247425
   6 H :    0.086377
   7 H :    0.083752
   8 H :    0.128308
   9 H :    0.128075

-------------------------------
LOEWDIN REDUCED ORBITAL CHARGES
-------------------------------
  0 C s       :     2.858973  s :     2.858973
      pz      :     0.830388  p :     2.749898
      px      :     1.019313
      py      :     0.900197
      dz2     :     0.030915  d :     0.296407
      dxz     :     0.031368
      dyz     :     0.055619
      dx2y2   :     0.115344
      dxy     :     0.063161

  1 O s       :     3.554551  s :     3.554551
      pz      :     1.407635  p :     4.604868
      px      :     1.605758
      py      :     1.591475
      dz2     :     0.008050  d :     0.058311
      dxz     :     0.011077
      dyz     :     0.010075
      dx2y2   :     0.012222
      dxy     :     0.016887

  2 O s       :     3.471773  s :     3.471773
      pz      :     1.719636  p :     4.628036
      px      :     1.407992
      py      :     1.500409
      dz2     :     0.007333  d :     0.050331
      dxz     :     0.002412
      dyz     :     0.010172
      dx2y2   :     0.020648
      dxy     :     0.009766

  3 C s       :     2.900485  s :     2.900485
      pz      :     1.034808  p :     3.075788
      px      :     0.989673
      py      :     1.051307
      dz2     :     0.027132  d :     0.110774
      dxz     :     0.017892
      dyz     :     0.013681
      dx2y2   :     0.038289
      dxy     :     0.013781

  4 H s       :     0.702954  s :     0.702954
      pz      :     0.026798  p :     0.115939
      px      :     0.067260
      py      :     0.021880

  5 N s       :     3.200067  s :     3.200067
      pz      :     1.159202  p :     3.989580
      px      :     1.650457
      py      :     1.179921
      dz2     :     0.018643  d :     0.057779
      dxz     :     0.011480
      dyz     :     0.007332
      dx2y2   :     0.012087
      dxy     :     0.008236

  6 H s       :     0.874775  s :     0.874775
      pz      :     0.006866  p :     0.038849
      px      :     0.006355
      py      :     0.025628

  7 H s       :     0.876962  s :     0.876962
      pz      :     0.023565  p :     0.039285
      px      :     0.008243
      py      :     0.007477

  8 H s       :     0.792595  s :     0.792595
      pz      :     0.012198  p :     0.079097
      px      :     0.023803
      py      :     0.043096

  9 H s       :     0.793024  s :     0.793024
      pz      :     0.040825  p :     0.078901
      px      :     0.024858
      py      :     0.013218



                      *****************************
                      * MAYER POPULATION ANALYSIS *
                      *****************************

  NA   - Mulliken gross atomic population
  ZA   - Total nuclear charge
  QA   - Mulliken gross atomic charge
  VA   - Mayer's total valence
  BVA  - Mayer's bonded valence
  FA   - Mayer's free valence

  ATOM       NA         ZA         QA         VA         BVA        FA
  0 C      5.5263     6.0000     0.4737     3.9726     3.9726     0.0000
  1 O      8.4120     8.0000    -0.4120     2.1114     2.1114     0.0000
  2 O      8.4583     8.0000    -0.4583     2.0330     2.0330    -0.0000
  3 C      6.1248     6.0000    -0.1248     3.8355     3.8355    -0.0000
  4 H      0.6814     1.0000     0.3186     0.9175     0.9175     0.0000
  5 N      7.5705     7.0000    -0.5705     2.9053     2.9053     0.0000
  6 H      0.8587     1.0000     0.1413     0.9499     0.9499     0.0000
  7 H      0.8669     1.0000     0.1331     0.9470     0.9470     0.0000
  8 H      0.7490     1.0000     0.2510     0.9192     0.9192     0.0000
  9 H      0.7522     1.0000     0.2478     0.9151     0.9151     0.0000

  Mayer bond orders larger than 0.100000
B(  0-C ,  1-O ) :   1.9312 B(  0-C ,  2-O ) :   1.0858 B(  0-C ,  3-C ) :   0.9193 
B(  2-O ,  4-H ) :   0.8529 B(  3-C ,  5-N ) :   1.0278 B(  3-C ,  6-H ) :   0.9455 
B(  3-C ,  7-H ) :   0.9336 B(  5-N ,  8-H ) :   0.9042 B(  5-N ,  9-H ) :   0.9083 


-------
TIMINGS
-------

Total SCF time: 0 days 0 hours 0 min 1 sec 

Total time                  ....       1.365 sec
Sum of individual times     ....       1.239 sec  ( 90.7%)

SCF preparation             ....       0.021 sec  (  1.5%)
Fock matrix formation       ....       1.205 sec  ( 88.3%)
  Startup                   ....       0.000 sec  (  0.0% of F)
  Split-RI-J                ....       0.281 sec  ( 23.3% of F)
  XC integration            ....       1.043 sec  ( 86.6% of F)
    Basis function eval.    ....       0.345 sec  ( 33.1% of XC)
    Density eval.           ....       0.185 sec  ( 17.7% of XC)
    XC-Functional eval.     ....       0.272 sec  ( 26.0% of XC)
    XC-Potential eval.      ....       0.212 sec  ( 20.4% of XC)
Diagonalization             ....       0.000 sec  (  0.0%)
Density matrix formation    ....       0.001 sec  (  0.1%)
Total Energy calculation    ....       0.000 sec  (  0.0%)
Population analysis         ....       0.001 sec  (  0.1%)
Orbital Transformation      ....       0.001 sec  (  0.1%)
Orbital Orthonormalization  ....       0.000 sec  (  0.0%)
DIIS solution               ....       0.007 sec  (  0.5%)
SOSCF solution              ....       0.002 sec  (  0.1%)
Finished LeanSCF after   1.4 sec

Maximum memory used throughout the entire LEANSCF-calculation: 10.2 MB



-------------------------------------------------------------------------------
                          DFT DISPERSION CORRECTION                            
-------------------------------------------------------------------------------
Active option DFTDOPT                   ...         2   
Final C6-coefficient scaling factor     ...     1.250
Final VDW-radii scaling factor          ...     1.100
Damping factor alpha                    ...    20.000
-------------------------   ----------------
Dispersion correction           -0.007432995
-------------------------   ----------------


-------------------------   --------------------
FINAL SINGLE POINT ENERGY      -284.249433764647
-------------------------   --------------------


------------------------------------------------------------------------------
                              ORCA PROPERTY CALCULATIONS
------------------------------------------------------------------------------

GBWName                                 ... 2.gbw
Number of atoms                         ...     10
Number of basis functions               ...     95
Max core memory                         ...   4096 MB

Electric properties:
Dipole moment                           ... YES
Quadrupole moment                       ...  NO
Static polarizability (Dipole/Dipole)   ...  NO
Static polarizability (Dipole/Quad.)    ...  NO
Static polarizability (Quad./Quad.)     ...  NO
Static polarizability (Velocity)        ...  NO
Static hyperpolarizability              ...  NO

Atomic electric properties:
Dipole moment                           ...  NO
Quadrupole moment                       ...  NO
Static polarizability                   ...  NO

Choice of electric origin               ... Center of mass
Position of electric origin             ...    -9.465318    -0.440090    -4.668374

General magnetic properties:
Magnetizability                         ...  NO

EPR properties:
g-Tensor (aka g-matrix)                 ...  NO
Zero-Field splitting spin-orbit         ...  NO
Zero-field splitting spin-spin          ...  NO
Hyperfine couplings                     ...  NO (   0 nuclei)
Quadrupole couplings                    ...  NO (   0 nuclei)
Contact density                         ...  NO (   0 nuclei)

NMR properties:
Chemical shifts                         ...  NO (   0 nuclei)
Spin-rotation constants                 ...  NO (   0 nuclei)
Spin-spin couplings                     ...  NO (   0 nuclei,    0 pairs)

Choice of magnetic origin               ... GIAO
Position of magnetic origin             ...     0.000000     0.000000     0.000000

Properties with geometric perturbations:
SCF Hessian                             ...  NO
IR spectrum                             ...  NO
VCD spectrum                            ...  NO
X-ray spectroscopy properties:
SCF XES/XAS/RIXS spectra                ...  NO

SCF SOC stabilization energy            ...  NO
Diagonal Born-Oppenheimer correction    ...  NO

-------------
DIPOLE MOMENT
-------------

Method             : SCF
Type of density    : Electron Density
Multiplicity       :   1
Irrep              :   0
Energy             :  -284.2420007696766788 Eh
Basis              : AO
                                X                 Y                 Z
Electronic contribution:      3.671985754      -0.223824267       0.226906301
Nuclear contribution   :     -3.550027679       0.915510415      -0.148125354
                        -----------------------------------------
Total Dipole Moment    :      0.121958075       0.691686148       0.078780946
                        -----------------------------------------
Magnitude (a.u.)       :      0.706760169
Magnitude (Debye)      :      1.796441585



--------------------
Rotational spectrum 
--------------------
 
Rotational constants in cm-1:             0.295840             0.135865             0.107933 
Rotational constants in MHz :          8869.047212          4073.122026          3235.755797 

Dipole components along the rotational axes: 
x,y,z [a.u.] :    -0.067812    -0.679600     0.181812 
x,y,z [Debye]:    -0.172364    -1.727406     0.462129 

 

Dipole moment calculation done in   0.0 sec 

Maximum memory used throughout the entire PROP-calculation: 5.8 MB

--------------------------------
SUGGESTED CITATIONS FOR THIS RUN
--------------------------------

Below you find a list of papers that are relevant to this ORCA run
We neither can nor want to force you to cite these papers, but we appreciate if you do
You receive ORCA, which is the product of decades of hard work by many enthusiastic individuals, for free
The only thing we kindly ask in return is that you cite our papers,
We deeply appreciate it, if you show your appreciation for ORCA by not just citing the generic ORCA reference.

Please note that relegating all ORCA citations to the supporting information does *not* help us.
SI sections are not indexed - citations you put there will not count into any citation statistics
But we need these citations in order to attract the funding resources that allow us to do what we are doing

Therefore, if you are a happy ORCA user, please consider citing a few of the papers listed below in the main body of your paper

In addition to the list printed below, the program has created the file 2.bibtex that contains the list in bibtex format
You can import this file easily into all common literature databanks and citation aid programs


List of essential papers. We consider these as the minimum necessary citations

  1. Neese, F.
     Software update: the ORCA program system, version 6.0
     WIRES Comput. Molec. Sci. 2025 15(1), e70019
     doi.org/10.1002/wcms.7019

List of papers to cite with high priority. The work reported in these papers was absolutely
necessary for this run to complete.
Our perspective: the developers of density functionals and basis sets usually get cited in chemistry papers
Good! But without the algorithms to do something with them, the functionals or basis sets would not do anything.
Hence, in our opinion, the algorithm design and method developments papers are equally worthy of getting cited

  1. Neese, F.
     An improvement of the resolution of the identity approximation for the formation of the Coulomb matrix
     J. Comp. Chem. 2003 24(14), 1740-1747
     doi.org/10.1002/jcc.10318
  2. Grimme, S.
     Semiempirical GGA-type density functional constructed with a long-range dispersion correction
     J.Comput.Chem. 2006 27(15), 1787-1799
     doi.org/10.1002/jcc.20495
  3. Neese, F.
     The SHARK Integral Generation and Digestion System
     J. Comp. Chem. 2022 44(3), 381
     doi.org/10.1002/jcc.26942

List of suggested additional citations. These are papers that are important in the 'surrounding' of 
of this run, or papers that preceded the highly important papers. If you like your results we are grateful for a citation.

  1. Neese, F.
     The ORCA program system
     WIRES Comput. Molec. Sci. 2012 2(1), 73-78
     doi.org/10.1002/wcms.81
  2. Neese, F.
     Software update: the ORCA program system, version 4.0
     WIRES Comput. Molec. Sci. 2018 8(1), 1-6
     doi.org/10.1002/wcms.1327
  3. Neese, F.; Wennmohs, F.; Becker, U.; Riplinger, C.
     The ORCA quantum chemistry program package
     J. Chem. Phys. 2020 152(22), 224108
     doi.org/10.1063/5.0004608
  4. Neese, F.
     Software update: The ORCA program system—Version 5.0
     WIRES Comput. Molec. Sci. 2022 12(1), e1606
     doi.org/10.1002/wcms.1606

List of optional additional citations

  1. Neese, F.
     Approximate second-order SCF convergence for spin unrestricted wavefunctions
     Chem. Phys. Lett. 2000 325(1-3), 93-98
     doi.org/10.1016/s0009-2614(00)00662-x

Timings for individual modules:

Sum of individual times          ...        1.689 sec (=   0.028 min)
Startup calculation              ...        0.182 sec (=   0.003 min)  10.8 %
SCF iterations                   ...        1.480 sec (=   0.025 min)  87.6 %
Property calculations            ...        0.028 sec (=   0.000 min)   1.6 %
                             ****ORCA TERMINATED NORMALLY****
TOTAL RUN TIME: 0 days 0 hours 0 minutes 1 seconds 730 msec
