
                                 *****************
                                 * O   R   C   A *
                                 *****************

                                            #,                                       
                                            ###                                      
                                            ####                                     
                                            #####                                    
                                            ######                                   
                                           ########,                                 
                                     ,,################,,,,,                         
                               ,,#################################,,                 
                          ,,##########################################,,             
                       ,#########################################, ''#####,          
                    ,#############################################,,   '####,        
                  ,##################################################,,,,####,       
                ,###########''''           ''''###############################       
              ,#####''   ,,,,##########,,,,          '''####'''          '####       
            ,##' ,,,,###########################,,,                        '##       
           ' ,,###''''                  '''############,,,                           
         ,,##''                                '''############,,,,        ,,,,,,###''
      ,#''                                            '''#######################'''  
     '                                                          ''''####''''         
             ,#######,   #######,   ,#######,      ##                                
            ,#'     '#,  ##    ##  ,#'     '#,    #''#        ,####,    ,#,          
            ##       ##  ##   ,#'  ##            #'  '#       #'       ,# #          
            ##       ##  #######   ##           ,######,      #####,      #          
            '#,     ,#'  ##    ##  '#,     ,#' ,#      #,     #,   #      #          
             '#######'   ##     ##  '#######'  #'      '#     '####' #    #          



                #########################################################
                #                        -***-                          #
                #          Department of theory and spectroscopy        #
                #                                                       #
                #                      Frank Neese                      #
                #                                                       #
                #     Directorship, Architecture, Infrastructure        #
                #                    SHARK, DRIVERS                     #
                #        Core code/Algorithms in most modules           #
                #                                                       #
                #        Max Planck Institute fuer Kohlenforschung      #
                #                Kaiser Wilhelm Platz 1                 #
                #                 D-45470 Muelheim/Ruhr                 #
                #                      Germany                          #
                #                                                       #
                #                  All rights reserved                  #
                #                        -***-                          #
                #########################################################


                         Program Version 6.1.0  -  RELEASE   -
                                (GIT: $679e74b$)
                          ($2025-06-10 18:02:51 +0200$)


 With contributions from (in alphabetic order):
[Max-Planck-Institut fuer Kohlenforschung]                               
  Daniel Aravena         : Magnetic Suceptibility                        
  Michael Atanasov       : Ab Initio Ligand Field Theory (pilot matlab implementation)
  Alexander A. Auer      : GIAO ZORA, VPT2 properties, NMR spectrum      
  Ute Becker             : All parallelization in ORCA, NUMFREQ, NUMCALC 
  Giovanni Bistoni       : ED, misc. LED, open-shell LED, HFLD           
  Dmytro Bykov           : pre 5.0 version of the SCF Hessian            
  Marcos Casanova-Páez   : Triplet and SCS-CIS(D). UHF-(DLPNO)-IP/EA/STEOM-CCSD. UHF-CVS-IP/STEOM-CCSD   
  Vijay G. Chilkuri      : MRCI spin determinant printing, contributions to CSF-ICE 
  Pauline Colinet        : FMM embedding                                 
  Dipayan Datta          : RHF DLPNO-CCSD density                        
  Achintya Kumar Dutta   : EOM-CC, STEOM-CC                              
  Nicolas Foglia         : Exact transition moments, OPA infrastructure, MCD improvements    
  Dmitry Ganyushin       : Spin-Orbit,Spin-Spin,Magnetic field MRCI      
  Miquel Garcia-Rates    : C-PCM and meta-GGA Hessian, CCSD/C-PCM, Gaussian charge scheme 
  Tiago L. C. Gouveia    : GS-ROHF, GS-ROCIS                             
  Yang Guo               : DLPNO-NEVPT2, F12-NEVPT2, CIM, IAO-localization        
  Andreas Hansen         : Spin unrestricted coupled pair/coupled cluster methods 
  Ingolf Harden          : AUTO-CI MPn and infrastructure                
  Benjamin Helmich-Paris : MC-RPA, TRAH-(SCF,CASSCF), AVAS, COSX integrals, SCF dyn. polar., MC-PDFT, srDFT 
  Lee Huntington         : MR-EOM, pCC                                   
  Robert Izsak           : Overlap fitted RIJCOSX, COSX-SCS-MP3, EOM     
  Riya Kayal             : Wick's Theorem for AUTO-CI, AUTO-CI UHF-CCSDT 
  Emily Kempfer          : AUTO-CI RHF CISDT and CCSDT, approximate NEVPT4
  Christian Kollmar      : KDIIS, OOCD, Brueckner-CCSD(T), CCSD density, CASPT2, CASPT2-K, improved NEVPT2 
  Axel Koslowski         : Symmetry handling                             
  Simone Kossmann        : meta-GGA functionals, TD-DFT gradient, OOMP2, (MP2 Hessian; deprecated post 5.0) 
  Lucas Lang             : DCDCAS, Hyperfine gauge corrections, ICE-SOC+SSC
  Marvin Lechner         : AUTO-CI (C++ implementation), FIC-MRCC        
  Spencer Leger          : CASSCF response                               
  Dagmar Lenk            : GEPOL surface, SMD, ORCA-2-JSON               
  Dimitrios Liakos       : Extrapolation schemes; Compound Job, Property file
  Dimitrios Manganas     : Further ROCIS development; embedding schemes. LFT, Crystal Embedding 
  Dimitrios Pantazis     : SARC Basis sets                               
  Anastasios Papadopoulos: AUTO-CI, single reference methods and gradients 
  Taras Petrenko         : pre 6.0 DFT Hessian and TD-DFT gradient,  ECA, NRVS 
  Petra Pikulova         : Analytic Raman intensities                    
  Peter Pinski           : DLPNO-MP2, DLPNO-MP2 Gradient                 
  Shashank Vittal Rao    : ES-AILFT, MagRelax                            
  Christoph Reimann      : Effective Core Potentials                     
  Marius Retegan         : Local ZFS, SOC                                
  Christoph Riplinger    : Optimizer, TS searches, QM/MM, DLPNO-CCSD(T), (RO)-DLPNO pert. Triples 
  Michael Roemelt        : Original ROCIS implementation, recursive CI coupling coefficients
  Masaaki Saitow         : Open-shell DLPNO-CCSD energy and density      
  Barbara Sandhoefer     : DKH picture change effects                    
  Yorick L. A. Schmerwitz: GMF and freeze-and-release deltaSCF, NEB S-IDPP initial path                    
  Kantharuban Sivalingam : CASSCF convergence/infrastructure, NEVPT2, NEVPT3, NEVPT4(SD), FIC-MRCI and CEPA variants
  Bernardo de Souza      : ESD, SOC TD-DFT                               
  Georgi L. Stoychev     : AutoAux, RI-MP2 NMR, DLPNO-MP2 response, X2C  
  Van Anh Tran           : RI-MP2 g-tensors                              
  Willem Van den Heuvel  : Paramagnetic NMR                              
  Zikuan Wang            : NOTCH, Electric field optimization            
  Frank Wennmohs         : Technical directorship and infrastructure     
  Hang Xu                : AUTO-CI-Response properties                   
                                                                         
[FACCTs GmbH]                                                            
  Markus Bursch, Nicolas Foglia, Miquel Garcia-Rates, Ingolf Harden, Hagen Neugebauer, Anastasios Papadopoulos, 
  Christoph Riplinger, Bernardo de Souza, Georgi L. Stoychev                                                    
                                                                 
  APM, various basis sets, CI-OPT, improved COSX, DLPNO-Multilevel,           
  DOCKER, DRACO, updates on ESD, Fragmentator, GOAT, IRC, LR-CPCM, L-BFGS, MBIS, meta-GGA TD-DFT gradient, ML-optimized integration grids, 
  MM, NACMEs, nearIR, NEB, NEB-TS, NL-DFT gradient (VV10), 2- and 3-layer-ONIOM, interface openCOSMO-RS, QMMM,   
  Crystal-QMMM, RESP, rigid body optimization, SF, symmetry and pop. for TD-DFT, various functionals, SOLVATOR                                   
                                                                         
[Other institutions]                                                     
  V. Asgeirsson          : NEB                                           
  Christoph Bannwarth    : sTDA-DFT, sTD-DFT, PBEh-3c, B97-3c, D3        
  Giovanni Bistoni       : ETS/NOCV, ADLD/ADEX, COVALED                  
  Martin Brehm           : Molecular dynamics                            
  Ronald Cardenas        : ETS/NOCV                                      
  Martina Colucci        : COVALED                                       
  Sebastian Ehlert       : rSCAN, r2SCAN, r2SCAN-3c, D4, dhf basis sets  
  Marvin Friede          : D4 for Fr, Ra, Ac-Lr                          
  Lars Goerigk           : TD-DFT with DH, B97 family of functionals     
  Stefan Grimme          : VdW corrections, initial TS optimization, DFT functionals, gCP, sTDA/sTD-DF 
  Waldemar Hujo          : DFT-NL                                        
  H. Jonsson             : NEB                                           
  Holger Kruse           : gCP                                           
  Marcel Mueller         : wB97X-3c, vDZP basis set                      
  Hagen Neugebauer       : wr2SCAN, Native XTB                           
  Gianluca Regni         : ADLD/ADEX                                     
  Tobias Risthaus        : pre 6.0 range-separated hybrid DFT and stability analysis
  Lukas Wittmann         : regularized MP2, r2SCAN double-hybrids, wr2SCAN        
                                                                         
We gratefully acknowledge several colleagues who have allowed us to      
interface, adapt or use parts of their codes:                            
  Ed Valeev, F. Pavosevic, A. Kumar             : LibInt (2-el integral package), F12 methods 
  Garnet Chan, S. Sharma, J. Yang, R. Olivares  : DMRG                   
  Ulf Ekstrom                                   : XCFun DFT Library      
  Mihaly Kallay                                 : mrcc  (arbitrary order and MRCC methods)
  Frank Weinhold                                : gennbo (NPA and NBO analysis)           
  Simon Mueller                                 : openCOSMO-RS                            
  Christopher J. Cramer and Donald G. Truhlar   : smd solvation model                     
  S Lehtola, MJT Oliveira, MAL Marques          : LibXC Library                           
  Liviu Ungur et al                             : ANISO software                          


 Your calculation uses the libint2 library for the computation of 2-el integrals
 For citations please refer to: http://libint.valeyev.net

 Your ORCA version has been built with support for libXC version: 7.0.0
 For citations please refer to: https://libxc.gitlab.io

 This ORCA versions uses:
   CBLAS   interface :  Fast vector & matrix operations
   LAPACKE interface :  Fast linear algebra routines
   SCALAPACK package :  Parallel linear algebra routines
   Shared memory     :  Shared parallel matrices
   BLAS/LAPACK       :  OpenBLAS 0.3.29  USE64BITINT DYNAMIC_ARCH NO_AFFINITY Haswell SINGLE_THREADED
        Core in use  :  Haswell
   Copyright (c) 2011-2014, The OpenBLAS Project


  ***********************************
  * Starting time: Sun Aug 31 12:29:42 2025
  * Host name:     chemlab03
  * Process ID:    91006
  * Working dir.:  /home/vivek/mm-project/vivek/xtb-goat/MP2-opt/a/2
  ***********************************



***************************************
The coordinates will be read from file: /home/vivek/mm-project/vivek/xtb-goat/xtb-goat/a/A_CONF/2.xyz
***************************************


================================================================================

----- Orbital basis set information -----
Your calculation utilizes the basis: 6-31G**
   H-He, Li-Ne : W. J. Hehre, R. Ditchfield and J.A. Pople, J. Chem. Phys. 56, 2257 (1972).
                 Note: He and Ne are unpublished basis sets taken from the Gaussian program.
                 Note: Li and B from J. D. Dill and J. A. Pople, J. Chem. Phys. 62, 2921 (1975).
   Na - Ar     : M. M. Francl, W. J. Pietro, W. J. Hehre, J. S. Binkley, M. S. Gordon, 
                 D. J. DeFrees and J. A. Pople, J. Chem. Phys. 77, 3654 (1982).
   K - Zn      : V. A. Rassolov, J. A. Pople, M. A. Ratner, and T. L. Windus, J. Chem. Phys. 109, 1223 (1998).

================================================================================
                                        WARNINGS
                       Please study these warnings very carefully!
================================================================================

WARNING: Old DensityContainer found on disk!
         Will remove this file - 
         If you want to keep old densities, please start your calculation with a different basename. 


WARNING: The frozen-core approximation for MP2-gradient calculations is turned on by default.

WARNING: Geometry Optimization
  ===> : Switching off AutoStart
         For restart on a previous wavefunction, please use MOREAD

WARNING: Post HF methods need fully converged wavefunctions
  ===> : Setting SCFConvForced true
         You can overwrite this default with %scf ConvForced false 


================================================================================
                                       INPUT FILE
================================================================================
NAME = 2.inp
|  1> ! MP2 6-31G** opt
|  2> 
|  3> * xyzfile 0 1 /home/vivek/mm-project/vivek/xtb-goat/xtb-goat/a/A_CONF/2.xyz
|  4> 
|  5>                          ****END OF INPUT****
================================================================================

                       *****************************
                       * Geometry Optimization Run *
                       *****************************

Geometry optimization settings:
Update method            Update   .... BFGS
Choice of coordinates    CoordSys .... (2022) Redundant Internals
Initial Hessian          InHess   .... Almloef's Model
Max. no of cycles        MaxIter  .... 50

Convergence Tolerances:
Energy Change            TolE     ....  5.0000e-06 Eh
Max. Gradient            TolMAXG  ....  3.0000e-04 Eh/bohr
RMS Gradient             TolRMSG  ....  1.0000e-04 Eh/bohr
Max. Displacement        TolMAXD  ....  4.0000e-03 bohr
RMS Displacement         TolRMSD  ....  2.0000e-03 bohr
Strict Convergence                .... False

------------------------------------------------------------------------------
                        ORCA OPTIMIZATION COORDINATE SETUP
------------------------------------------------------------------------------

The optimization will be done in redundant internal coordinates (2022)
Making redundant internal coordinates   ...  (2022 redundants) done
Evaluating the initial hessian          ...  (Almloef) done
Evaluating the coordinates              ...  done
Calculating the B-matrix                .... done
Calculating the G-matrix                .... done
The number of degrees of freedom        ....   50

    -----------------------------------------------------------------
                    Redundant Internal Coordinates


    -----------------------------------------------------------------
         Definition                    Initial Value    Approx d2E/dq
    -----------------------------------------------------------------
      1. B(O   1,C   0)                  1.2010         1.120496   
      2. B(O   2,C   0)                  1.3355         0.683691   
      3. B(C   3,C   0)                  1.5171         0.391654   
      4. B(H   4,O   2)                  0.9710         0.499362   
      5. B(C   5,C   3)                  1.5418         0.357718   
      6. B(H   6,C   5)                  1.0881         0.362623   
      7. B(N   7,C   3)                  1.4487         0.451083   
      8. B(H   8,C   5)                  1.0869         0.364269   
      9. B(H   9,C   5)                  1.0888         0.361677   
     10. B(H  10,C   3)                  1.0960         0.352283   
     11. B(H  11,N   7)                  1.0136         0.426999   
     12. B(H  12,O   1)                  2.3729         0.010000   
     13. B(H  12,N   7)                  1.0155         0.424100   
     14. A(O   1,C   0,C   3)          124.8833         0.441643   
     15. A(O   2,C   0,C   3)          112.1281         0.404336   
     16. A(O   1,C   0,O   2)          122.9347         0.485744   
     17. A(C   0,O   2,H   4)          110.4402         0.373790   
     18. A(C   0,C   3,H  10)          108.7090         0.325671   
     19. A(C   0,C   3,N   7)          108.8258         0.376010   
     20. A(C   0,C   3,C   5)          106.7271         0.363593   
     21. A(C   5,C   3,N   7)          114.4807         0.370182   
     22. A(N   7,C   3,H  10)          108.8238         0.331350   
     23. A(C   5,C   3,H  10)          109.1326         0.320865   
     24. A(H   8,C   5,H   9)          108.9979         0.291566   
     25. A(H   6,C   5,H   9)          108.9175         0.291359   
     26. A(C   3,C   5,H   6)          109.6613         0.322388   
     27. A(C   3,C   5,H   9)          110.0452         0.322251   
     28. A(H   6,C   5,H   8)          108.7352         0.291686   
     29. A(C   3,C   5,H   8)          110.4502         0.322628   
     30. A(H  11,N   7,H  12)          108.5326         0.301645   
     31. A(C   3,N   7,H  12)          109.5279         0.338799   
     32. A(C   3,N   7,H  11)          110.7092         0.339184   
     33. D(H   4,O   2,C   0,O   1)     -0.5040         0.034850   
     34. D(H   4,O   2,C   0,C   3)   -177.9501         0.034850   
     35. D(N   7,C   3,C   0,O   1)     33.7594         0.011407   
     36. D(N   7,C   3,C   0,O   2)   -148.8535         0.011407   
     37. D(C   5,C   3,C   0,O   2)     87.1176         0.011407   
     38. D(H  10,C   3,C   0,O   1)    152.1429         0.011407   
     39. D(C   5,C   3,C   0,O   1)    -90.2694         0.011407   
     40. D(H   8,C   5,C   3,H  10)     57.3082         0.010275   
     41. D(H   8,C   5,C   3,N   7)    179.5313         0.010275   
     42. D(H   8,C   5,C   3,C   0)    -59.9999         0.010275   
     43. D(H   6,C   5,C   3,H  10)    -62.5102         0.010275   
     44. D(H   6,C   5,C   3,N   7)     59.7129         0.010275   
     45. D(H   6,C   5,C   3,C   0)   -179.8183         0.010275   
     46. D(H  11,N   7,C   3,C   5)    -41.3731         0.017359   
     47. D(H  11,N   7,C   3,C   0)   -160.6708         0.017359   
     48. D(H  12,N   7,C   3,C   5)     78.2717         0.017359   
     49. D(H  12,N   7,C   3,C   0)    -41.0260         0.017359   
     50. D(H  11,N   7,C   3,H  10)     81.0180         0.017359   
    -----------------------------------------------------------------

Number of atoms                         .... 13
Number of degrees of freedom            .... 50


         *************************************************************
         *                GEOMETRY OPTIMIZATION CYCLE   1            *
         *************************************************************
---------------------------------
CARTESIAN COORDINATES (ANGSTROEM)
---------------------------------
  C     -4.455223   -0.010951   -1.940510
  O     -3.525471   -0.487196   -2.533096
  O     -4.392975    1.170321   -1.320650
  C     -5.838102   -0.629036   -1.854975
  H     -3.508081    1.558077   -1.417870
  C     -6.646790   -0.073526   -3.044344
  H     -7.653540   -0.485976   -3.027050
  N     -5.705345   -2.071550   -1.840786
  H     -6.712307    1.009799   -2.986086
  H     -6.168226   -0.349733   -3.982531
  H     -6.309346   -0.308062   -0.918993
  H     -6.579339   -2.514509   -2.100283
  H     -4.990975   -2.353229   -2.505249

----------------------------
CARTESIAN COORDINATES (A.U.)
----------------------------
  NO LB      ZA    FRAG     MASS         X           Y           Z
   0 C     6.0000    0    12.011   -8.419151   -0.020694   -3.667033
   1 O     8.0000    0    15.999   -6.662175   -0.920667   -4.786857
   2 O     8.0000    0    15.999   -8.301520    2.211587   -2.495667
   3 C     6.0000    0    12.011  -11.032414   -1.188706   -3.505395
   4 H     1.0000    0     1.008   -6.629313    2.944338   -2.679387
   5 C     6.0000    0    12.011  -12.560612   -0.138943   -5.752977
   6 H     1.0000    0     1.008  -14.463095   -0.918362   -5.720296
   7 N     7.0000    0    14.007  -10.781540   -3.914663   -3.478581
   8 H     1.0000    0     1.008  -12.684423    1.908243   -5.642884
   9 H     1.0000    0     1.008  -11.656257   -0.660900   -7.525893
  10 H     1.0000    0     1.008  -11.922936   -0.582153   -1.736645
  11 H     1.0000    0     1.008  -12.433149   -4.751733   -3.968959
  12 H     1.0000    0     1.008   -9.431577   -4.446959   -4.734235

--------------------------------
INTERNAL COORDINATES (ANGSTROEM)
--------------------------------
 C      0   0   0     0.000000000000     0.00000000     0.00000000
 O      1   0   0     1.201001728894     0.00000000     0.00000000
 O      1   2   0     1.335479309352   122.93468625     0.00000000
 C      1   2   3     1.517135446652   124.88328887   177.11578839
 H      3   1   2     0.971000851485   110.44022191   359.49599359
 C      4   1   2     1.541806575338   106.72706082   269.73061275
 H      6   4   1     1.088099657666   109.66128615   180.18167783
 N      4   1   2     1.448679511082   108.82575608    33.75944971
 H      6   4   1     1.086866386573   110.45018479   300.00010344
 H      6   4   1     1.088810404699   110.04517696    60.39050933
 H      4   1   2     1.095973859680   108.70899911   152.14294224
 H      8   4   1     1.013615326866   110.70917691   199.32919276
 H      8   4   1     1.015469825864   109.52788062   318.97396167

---------------------------
INTERNAL COORDINATES (A.U.)
---------------------------
 C      0   0   0     0.000000000000     0.00000000     0.00000000
 O      1   0   0     2.269564353975     0.00000000     0.00000000
 O      1   2   0     2.523690152193   122.93468625     0.00000000
 C      1   2   3     2.866970502237   124.88328887   177.11578839
 H      3   1   2     1.834925685110   110.44022191   359.49599359
 C      4   1   2     2.913592178868   106.72706082   269.73061275
 H      6   4   1     2.056210359402   109.66128615   180.18167783
 N      4   1   2     2.737607531768   108.82575608    33.75944971
 H      6   4   1     2.053879814788   110.45018479   300.00010344
 H      6   4   1     2.057553476645   110.04517696    60.39050933
 H      4   1   2     2.071090444732   108.70899911   152.14294224
 H      8   4   1     1.915455372921   110.70917691   199.32919276
 H      8   4   1     1.918959868144   109.52788062   318.97396167

---------------------
BASIS SET INFORMATION
---------------------
There are 4 groups of distinct atoms

 Group   1 Type C   : 10s4p1d contracted to 3s2p1d pattern {631/31/1}
 Group   2 Type O   : 10s4p1d contracted to 3s2p1d pattern {631/31/1}
 Group   3 Type H   : 4s1p contracted to 2s1p pattern {31/1}
 Group   4 Type N   : 10s4p1d contracted to 3s2p1d pattern {631/31/1}

Atom   0C    basis set group =>   1
Atom   1O    basis set group =>   2
Atom   2O    basis set group =>   2
Atom   3C    basis set group =>   1
Atom   4H    basis set group =>   3
Atom   5C    basis set group =>   1
Atom   6H    basis set group =>   3
Atom   7N    basis set group =>   4
Atom   8H    basis set group =>   3
Atom   9H    basis set group =>   3
Atom  10H    basis set group =>   3
Atom  11H    basis set group =>   3
Atom  12H    basis set group =>   3
------------------------------------------------------------------------------
                             ORCA STARTUP CALCULATIONS
------------------------------------------------------------------------------
------------------------------------------------------------------------------
                   ___                                                        
                  /   \      - P O W E R E D   B Y -                         
                 /     \                                                     
                 |  |  |   _    _      __       _____    __    __             
                 |  |  |  | |  | |    /  \     |  _  \  |  |  /  |          
                  \  \/   | |  | |   /    \    | | | |  |  | /  /          
                 / \  \   | |__| |  /  /\  \   | |_| |  |  |/  /          
                |  |  |   |  __  | /  /__\  \  |    /   |      \           
                |  |  |   | |  | | |   __   |  |    \   |  |\   \          
                \     /   | |  | | |  |  |  |  | |\  \  |  | \   \       
                 \___/    |_|  |_| |__|  |__|  |_| \__\ |__|  \__/        
                                                                              
                      - O R C A' S   B I G   F R I E N D -                    
                                      &                                       
                       - I N T E G R A L  F E E D E R -                       
                                                                              
 v1 FN, 2020, v2 2021, v3 2022-2024                                           
------------------------------------------------------------------------------


----------------------
SHARK INTEGRAL PACKAGE
----------------------

Number of atoms                             ...     13
Number of basis functions                   ...    119
Number of shells                            ...     57
Maximum angular momentum                    ...      2
Integral batch strategy                     ... SHARK/LIBINT Hybrid
RI-J (if used) integral strategy            ... SPLIT-RIJ (Revised 2003 algorithm where possible)
Printlevel                                  ...      1
Contraction scheme used                     ... SEGMENTED contraction
Prescreening option                         ... SCHWARTZ
   Thresh                                   ... 2.500e-11
   Tcut                                     ... 2.500e-12
   Tpresel                                  ... 2.500e-12 
Coulomb Range Separation                    ... NOT USED
Exchange Range Separation                   ... NOT USED
Multipole approximations                    ... NOT USED
Finite Nucleus Model                        ... NOT USED
CABS basis                                  ... NOT available
Auxiliary Coulomb fitting basis             ... NOT available
Auxiliary J/K fitting basis                 ... NOT available
Auxiliary Correlation fitting basis         ... NOT available
Auxiliary 'external' fitting basis          ... NOT available

Checking pre-screening integrals            ... done (  0.0 sec) Dimension = 57
   => SHARK Basis and OBASIS are compatible. Storing Pre-screening
Shell pair information
Shell pair cut-off parameter TPreSel        ...   2.5e-12
Total number of shell pairs                 ...      1653
Shell pairs after pre-screening             ...      1593
Total number of primitive shell pairs       ...      8022
Primitive shell pairs kept                  ...      5565
          la=0 lb=0:    503 shell pairs
          la=1 lb=0:    582 shell pairs
          la=1 lb=1:    183 shell pairs
          la=2 lb=0:    190 shell pairs
          la=2 lb=1:    114 shell pairs
          la=2 lb=2:     21 shell pairs

Checking whether 4 symmetric matrices of dimension 119 fit in memory
:Max Core in MB      =   4096.00
 MB in use           =      3.42
 MB left             =   4092.58
 MB needed           =      0.22
 Data fit in memory  = YES
Calculating Nuclear repulsion               ... done (  0.0 sec) ENN=    250.586711460954 Eh

Diagonalization of the overlap matrix:
Smallest eigenvalue                        ... 3.702e-03
Time for diagonalization                   ...    0.001 sec
Threshold for overlap eigenvalues          ... 1.000e-07
Number of eigenvalues below threshold      ... 0
Time for construction of square roots      ...    0.000 sec
Total time needed                          ...    0.001 sec

-------------------
DFT GRID GENERATION
-------------------

General Integration Accuracy     IntAcc      ... 4.388
Radial Grid Type                 RadialGrid  ... OptM3 with GC (2021)
Angular Grid (max. ang.)         AngularGrid ... 4 (Lebedev-302)
Angular grid pruning method      GridPruning ... 4 (adaptive)
Weight generation scheme         WeightScheme... mBecke (2022)
Basis function cutoff            BFCut       ... 1.0000e-11
Integration weight cutoff        WCut        ... 1.0000e-14
Partially contracted basis set               ... off
Rotationally invariant grid construction     ... off
Angular grids for H and He will be reduced by one unit

Total number of grid points                  ...    58941
Total number of batches                      ...      928
Average number of points per batch           ...       63
Average number of grid points per atom       ...     4534
Grids setup in   0.2 sec
Initializing property integral containers    ... done (  0.0 sec)

SHARK setup successfully completed in   0.2 seconds

Maximum memory used throughout the entire STARTUP-calculation: 22.6 MB
-------------------------------------------------------------------------------
                                 ORCA GUESS
                   Start orbitals & Density for SCF / CASSCF
-------------------------------------------------------------------------------

------------
SCF SETTINGS
------------
Hamiltonian:
 Ab initio Hamiltonian  Method          .... Hartree-Fock(GTOs)


General Settings:
 Integral files         IntName         .... 2
 Hartree-Fock type      HFTyp           .... RHF
 Total Charge           Charge          ....    0
 Multiplicity           Mult            ....    1
 Number of Electrons    NEL             ....   48
 Basis Dimension        Dim             ....  119
 Nuclear Repulsion      ENuc            ....    250.5867114610 Eh

Convergence Acceleration:
 AO-DIIS                CNVDIIS         .... on
   Start iteration      DIISMaxIt       ....    12
   Startup error        DIISStart       ....  0.200000
   # of expansion vecs  DIISMaxEq       ....     5
   Bias factor          DIISBfac        ....   1.050
   Max. coefficient     DIISMaxC        ....  10.000
 MO-DIIS                CNVKDIIS        .... off
 Trust-Rad. Augm. Hess. CNVTRAH         .... auto
   Auto Start mean grad. ratio tolernc. ....  1.125000
   Auto Start start iteration           ....    50
   Auto Start num. interpolation iter.  ....    10
   Max. Number of Micro iterations      ....    24
   Max. Number of Macro iterations      .... Maxiter - #DIIS iter
   Number of Davidson start vectors     ....     2
   Converg. threshold    (grad. norm)   ....   1.000e-05
   Grad. Scal. Fac. for Micro threshold ....   0.100
   Minimum threshold for Micro iter.    ....   1.000e-02
   NR start threshold (gradient norm)   ....   1.000e-04
   Initial trust radius                 ....   0.400
   Minimum AH scaling param. (alpha)    ....   1.000
   Maximum AH scaling param. (alpha)    .... 1000.000
   Quad. conv. algorithm                .... NR
   White noise on init. David. guess    .... on
   Maximum white noise                  ....   0.010
   Pseudo random numbers                .... off
   Inactive MOs                         .... canonical
   Orbital update algorithm             .... Taylor
   Preconditioner                       .... Diag
   Full preconditioner red. dimension   ....   250
 SOSCF                 CNVSOSCF           .... on
   Start iteration     SOSCFMaxIt         ....   150
   Startup grad/error  SOSCFStart         ....  0.003300
   Hessian update      SOSCFHessUp        .... L-BFGS
   Autom. constraints  SOSCFAutoConstrain .... off
 Level Shifting         CNVShift        .... on
   Level shift para.    LevelShift      ....    0.2500
   Turn off err/grad.   ShiftErr        ....    0.0010
 Zerner damping         CNVZerner       .... off
 Static damping         CNVDamp         .... on
   Fraction old density DampFac         ....    0.7000
   Max. Damping (<1)    DampMax         ....    0.9800
   Min. Damping (>=0)   DampMin         ....    0.0000
   Turn off err/grad.   DampErr         ....    0.1000

SCF Procedure:
 Maximum # iterations   MaxIter         ....   125
 SCF integral mode      SCFMode         .... Direct
   Integral package                     .... SHARK and LIBINT hybrid scheme
 Reset frequency        DirectResetFreq ....    20
 Integral Threshold     Thresh          ....  2.500e-11 Eh
 Primitive CutOff       TCut            ....  2.500e-12 Eh

Convergence Tolerance:
 Convergence Check Mode ConvCheckMode   .... Total+1el-Energy
 Convergence forced     ConvForced      .... 1
 Energy Change          TolE            ....  1.000e-08 Eh
 1-El. energy change                    ....  1.000e-05 Eh
 Orbital Gradient       TolG            ....  1.000e-05
 Orbital Rotation angle TolX            ....  1.000e-05
 DIIS Error             TolErr          ....  5.000e-07

------------------------------
INITIAL GUESS: MODEL POTENTIAL
------------------------------
Loading Hartree-Fock densities                     ... done
Calculating cut-offs                               ... done
Initializing the effective Hamiltonian             ... done
Setting up the integral package (SHARK)            ... done
Starting the Coulomb interaction                   ... done (   0.0 sec)
Making the grid                                    ... done (   0.0 sec)
Mapping shells                                     ... done
Starting the XC term evaluation                    ... done (   0.0 sec)
Transforming the Hamiltonian                       ... done (   0.0 sec)
Diagonalizing the Hamiltonian                      ... done (   0.0 sec)
Back transforming the eigenvectors                 ... done (   0.0 sec)
Now organizing SCF variables                       ... done
                      ------------------
                      INITIAL GUESS DONE (   0.1 sec)
                      ------------------
             **** ENERGY FILE WAS UPDATED (2.en.tmp) ****
Finished Guess after   0.1 sec
Maximum memory used throughout the entire GUESS-calculation: 7.3 MB

-------------------------------------------------------------------------------------------
                                      ORCA LEAN-SCF
                              memory conserving SCF solver
-------------------------------------------------------------------------------------------

----------------------------------------D-I-I-S--------------------------------------------
Iteration    Energy (Eh)           Delta-E    RMSDP     MaxDP     DIISErr   Damp  Time(sec)
-------------------------------------------------------------------------------------------
               ***  Starting incremental Fock matrix formation  ***
    1    -321.5913482797553797     0.00e+00  3.17e-03  6.81e-02  2.59e-01  0.700   0.5
    2    -321.6969046727207342    -1.06e-01  2.34e-03  4.89e-02  1.62e-01  0.700   0.5
                               ***Turning on AO-DIIS***
    3    -321.7581915331056734    -6.13e-02  1.24e-03  2.17e-02  9.19e-02  0.700   0.5
    4    -321.7966214382654471    -3.84e-02  2.81e-03  4.61e-02  6.20e-02  0.000   0.5
    5    -321.8816293712014840    -8.50e-02  3.50e-04  5.73e-03  5.43e-03  0.000   0.5
                              *** Initializing SOSCF ***
---------------------------------------S-O-S-C-F--------------------------------------
Iteration    Energy (Eh)           Delta-E    RMSDP     MaxDP     MaxGrad    Time(sec)
--------------------------------------------------------------------------------------
    6    -321.8819826723251936    -3.53e-04  1.78e-04  2.25e-03  2.88e-03     0.4
               *** Restarting incremental Fock matrix formation ***
    7    -321.8820666052960178    -8.39e-05  1.11e-04  2.24e-03  1.87e-03     0.5
    8    -321.8820934622998493    -2.69e-05  1.22e-04  1.54e-03  4.74e-04     0.4
    9    -321.8821029806899787    -9.52e-06  2.22e-05  2.47e-04  2.82e-04     0.4
   10    -321.8821037697408656    -7.89e-07  8.52e-06  9.27e-05  7.39e-05     0.4
   11    -321.8821038623747199    -9.26e-08  3.12e-06  5.29e-05  1.76e-05     0.4
   12    -321.8821038742457858    -1.19e-08  7.39e-07  1.69e-05  7.58e-06     0.4
   13    -321.8821038751456172    -9.00e-10  1.96e-07  2.55e-06  9.65e-07     0.3
                 **** Energy Check signals convergence ****

               *****************************************************
               *                     SUCCESS                       *
               *           SCF CONVERGED AFTER  13 CYCLES          *
               *****************************************************

             **** ENERGY FILE WAS UPDATED (2.en.tmp) ****

----------------
TOTAL SCF ENERGY
----------------

Total Energy       :       -321.88210387602157 Eh           -8758.85734 eV

Components:
Nuclear Repulsion  :        250.58671146095401 Eh            6818.81108 eV
Electronic Energy  :       -572.46881533697558 Eh          -15577.66842 eV
One Electron Energy:       -936.52696809910572 Eh          -25484.19439 eV
Two Electron Energy:        364.05815276213013 Eh            9906.52597 eV

Virial components:
Potential Energy   :       -643.34360147328391 Eh          -17506.26940 eV
Kinetic Energy     :        321.46149759726234 Eh            8747.41206 eV
Virial Ratio       :          2.00130841883679

---------------
SCF CONVERGENCE
---------------

  Last Energy change         ...    8.9983e-10  Tolerance :   1.0000e-08
  Last MAX-Density change    ...    2.5458e-06  Tolerance :   1.0000e-07
  Last RMS-Density change    ...    1.9591e-07  Tolerance :   5.0000e-09
  Last DIIS Error            ...    2.8804e-03  Tolerance :   5.0000e-07
  Last Orbital Gradient      ...    9.6453e-07  Tolerance :   1.0000e-05
  Last Orbital Rotation      ...    1.5678e-06  Tolerance :   1.0000e-05


----------------
ORBITAL ENERGIES
----------------

  NO   OCC          E(Eh)            E(eV) 
   0   2.0000     -20.619504      -561.0852 
   1   2.0000     -20.555703      -559.3491 
   2   2.0000     -15.544897      -422.9981 
   3   2.0000     -11.387054      -309.8575 
   4   2.0000     -11.275258      -306.8154 
   5   2.0000     -11.230846      -305.6069 
   6   2.0000      -1.471614       -40.0447 
   7   2.0000      -1.365491       -37.1569 
   8   2.0000      -1.195826       -32.5401 
   9   2.0000      -1.019370       -27.7385 
  10   2.0000      -0.911786       -24.8110 
  11   2.0000      -0.798968       -21.7410 
  12   2.0000      -0.721453       -19.6317 
  13   2.0000      -0.700907       -19.0726 
  14   2.0000      -0.646668       -17.5967 
  15   2.0000      -0.624310       -16.9883 
  16   2.0000      -0.609029       -16.5725 
  17   2.0000      -0.582730       -15.8569 
  18   2.0000      -0.568486       -15.4693 
  19   2.0000      -0.538030       -14.6405 
  20   2.0000      -0.518890       -14.1197 
  21   2.0000      -0.480309       -13.0699 
  22   2.0000      -0.446720       -12.1559 
  23   2.0000      -0.391482       -10.6528 
  24   0.0000       0.185162         5.0385 
  25   0.0000       0.220695         6.0054 
  26   0.0000       0.229460         6.2439 
  27   0.0000       0.285215         7.7611 
  28   0.0000       0.290511         7.9052 
  29   0.0000       0.311663         8.4808 
  30   0.0000       0.318604         8.6696 
  31   0.0000       0.345511         9.4018 
  32   0.0000       0.389060        10.5869 
  33   0.0000       0.410114        11.1598 
  34   0.0000       0.469950        12.7880 
*Only the first 10 virtual orbitals were printed.

                    ********************************
                    * MULLIKEN POPULATION ANALYSIS *
                    ********************************

-----------------------
MULLIKEN ATOMIC CHARGES
-----------------------
   0 C :    0.811397
   1 O :   -0.587446
   2 O :   -0.637408
   3 C :   -0.013374
   4 H :    0.372247
   5 C :   -0.354906
   6 H :    0.123660
   7 N :   -0.699211
   8 H :    0.133420
   9 H :    0.132096
  10 H :    0.158882
  11 H :    0.268050
  12 H :    0.292592
Sum of atomic charges:   -0.0000000

--------------------------------
MULLIKEN REDUCED ORBITAL CHARGES
--------------------------------
  0 C s       :     2.940238  s :     2.940238
      pz      :     0.623479  p :     2.100489
      px      :     0.841691
      py      :     0.635318
      dz2     :     0.023725  d :     0.147877
      dxz     :     0.020583
      dyz     :     0.026726
      dx2y2   :     0.045578
      dxy     :     0.031264

  1 O s       :     3.874670  s :     3.874670
      pz      :     1.473564  p :     4.679885
      px      :     1.517798
      py      :     1.688523
      dz2     :     0.007280  d :     0.032892
      dxz     :     0.008803
      dyz     :     0.003052
      dx2y2   :     0.005629
      dxy     :     0.008128

  2 O s       :     3.838621  s :     3.838621
      pz      :     1.772193  p :     4.773148
      px      :     1.546599
      py      :     1.454355
      dz2     :     0.004381  d :     0.025640
      dxz     :     0.001780
      dyz     :     0.006534
      dx2y2   :     0.009244
      dxy     :     0.003700

  3 C s       :     3.200523  s :     3.200523
      pz      :     1.032880  p :     2.742073
      px      :     0.917876
      py      :     0.791317
      dz2     :     0.014436  d :     0.070778
      dxz     :     0.009458
      dyz     :     0.016043
      dx2y2   :     0.017496
      dxy     :     0.013345

  4 H s       :     0.586262  s :     0.586262
      pz      :     0.008151  p :     0.041490
      px      :     0.023381
      py      :     0.009958

  5 C s       :     3.262743  s :     3.262743
      pz      :     0.973060  p :     3.051166
      px      :     1.025367
      py      :     1.052740
      dz2     :     0.011165  d :     0.040997
      dxz     :     0.009098
      dyz     :     0.004066
      dx2y2   :     0.011609
      dxy     :     0.005059

  6 H s       :     0.863587  s :     0.863587
      pz      :     0.001821  p :     0.012753
      px      :     0.008129
      py      :     0.002802

  7 N s       :     3.604121  s :     3.604121
      pz      :     1.694664  p :     4.061494
      px      :     1.235913
      py      :     1.130918
      dz2     :     0.004496  d :     0.033595
      dxz     :     0.009308
      dyz     :     0.003894
      dx2y2   :     0.010249
      dxy     :     0.005649

  8 H s       :     0.853822  s :     0.853822
      pz      :     0.001812  p :     0.012757
      px      :     0.001790
      py      :     0.009156

  9 H s       :     0.855292  s :     0.855292
      pz      :     0.007257  p :     0.012613
      px      :     0.003116
      py      :     0.002240

 10 H s       :     0.829076  s :     0.829076
      pz      :     0.007499  p :     0.012042
      px      :     0.002938
      py      :     0.001605

 11 H s       :     0.705687  s :     0.705687
      pz      :     0.007231  p :     0.026263
      px      :     0.012406
      py      :     0.006626

 12 H s       :     0.680785  s :     0.680785
      pz      :     0.010515  p :     0.026623
      px      :     0.011351
      py      :     0.004757



                     *******************************
                     * LOEWDIN POPULATION ANALYSIS *
                     *******************************

----------------------
LOEWDIN ATOMIC CHARGES
----------------------
   0 C :    0.247726
   1 O :   -0.307428
   2 O :   -0.205180
   3 C :   -0.020330
   4 H :    0.202138
   5 C :   -0.187053
   6 H :    0.068594
   7 N :   -0.285929
   8 H :    0.073193
   9 H :    0.071897
  10 H :    0.077727
  11 H :    0.126713
  12 H :    0.137932

-------------------------------
LOEWDIN REDUCED ORBITAL CHARGES
-------------------------------
  0 C s       :     2.839797  s :     2.839797
      pz      :     0.741650  p :     2.593478
      px      :     1.013391
      py      :     0.838437
      dz2     :     0.046273  d :     0.319000
      dxz     :     0.042921
      dyz     :     0.062252
      dx2y2   :     0.100550
      dxy     :     0.067004

  1 O s       :     3.546006  s :     3.546006
      pz      :     1.472576  p :     4.703841
      px      :     1.563961
      py      :     1.667304
      dz2     :     0.008549  d :     0.057580
      dxz     :     0.016506
      dyz     :     0.006405
      dx2y2   :     0.012231
      dxy     :     0.013889

  2 O s       :     3.457335  s :     3.457335
      pz      :     1.734715  p :     4.699555
      px      :     1.512970
      py      :     1.451871
      dz2     :     0.006905  d :     0.048289
      dxz     :     0.002424
      dyz     :     0.012123
      dx2y2   :     0.016008
      dxy     :     0.010829

  3 C s       :     2.869908  s :     2.869908
      pz      :     1.060966  p :     3.009737
      px      :     1.009161
      py      :     0.939610
      dz2     :     0.027019  d :     0.140686
      dxz     :     0.018579
      dyz     :     0.031909
      dx2y2   :     0.035996
      dxy     :     0.027183

  4 H s       :     0.677765  s :     0.677765
      pz      :     0.025643  p :     0.120097
      px      :     0.065815
      py      :     0.028640

  5 C s       :     2.917486  s :     2.917486
      pz      :     1.048588  p :     3.196718
      px      :     1.064639
      py      :     1.083492
      dz2     :     0.020127  d :     0.072849
      dxz     :     0.016564
      dyz     :     0.007811
      dx2y2   :     0.019493
      dxy     :     0.008854

  6 H s       :     0.891352  s :     0.891352
      pz      :     0.006622  p :     0.040053
      px      :     0.024066
      py      :     0.009365

  7 N s       :     3.182397  s :     3.182397
      pz      :     1.651427  p :     4.043401
      px      :     1.212956
      py      :     1.179018
      dz2     :     0.006257  d :     0.060131
      dxz     :     0.012187
      dyz     :     0.008010
      dx2y2   :     0.019744
      dxy     :     0.013933

  8 H s       :     0.886115  s :     0.886115
      pz      :     0.006509  p :     0.040692
      px      :     0.006842
      py      :     0.027341

  9 H s       :     0.887584  s :     0.887584
      pz      :     0.022403  p :     0.040519
      px      :     0.010284
      py      :     0.007833

 10 H s       :     0.882871  s :     0.882871
      pz      :     0.022639  p :     0.039403
      px      :     0.010381
      py      :     0.006383

 11 H s       :     0.791624  s :     0.791624
      pz      :     0.024266  p :     0.081663
      px      :     0.037521
      py      :     0.019875

 12 H s       :     0.778045  s :     0.778045
      pz      :     0.035691  p :     0.084023
      px      :     0.033132
      py      :     0.015201



                      *****************************
                      * MAYER POPULATION ANALYSIS *
                      *****************************

  NA   - Mulliken gross atomic population
  ZA   - Total nuclear charge
  QA   - Mulliken gross atomic charge
  VA   - Mayer's total valence
  BVA  - Mayer's bonded valence
  FA   - Mayer's free valence

  ATOM       NA         ZA         QA         VA         BVA        FA
  0 C      5.1886     6.0000     0.8114     3.6861     3.6861    -0.0000
  1 O      8.5874     8.0000    -0.5874     1.8947     1.8947    -0.0000
  2 O      8.6374     8.0000    -0.6374     1.8369     1.8369    -0.0000
  3 C      6.0134     6.0000    -0.0134     3.7594     3.7594     0.0000
  4 H      0.6278     1.0000     0.3722     0.8717     0.8717    -0.0000
  5 C      6.3549     6.0000    -0.3549     3.8238     3.8238    -0.0000
  6 H      0.8763     1.0000     0.1237     0.9544     0.9544    -0.0000
  7 N      7.6992     7.0000    -0.6992     2.7406     2.7406    -0.0000
  8 H      0.8666     1.0000     0.1334     0.9500     0.9500     0.0000
  9 H      0.8679     1.0000     0.1321     0.9528     0.9528    -0.0000
 10 H      0.8411     1.0000     0.1589     0.9373     0.9373     0.0000
 11 H      0.7319     1.0000     0.2681     0.9085     0.9085    -0.0000
 12 H      0.7074     1.0000     0.2926     0.9040     0.9040    -0.0000

  Mayer bond orders larger than 0.100000
B(  0-C ,  1-O ) :   1.8196 B(  0-C ,  2-O ) :   0.9796 B(  0-C ,  3-C ) :   0.9291 
B(  2-O ,  4-H ) :   0.8404 B(  3-C ,  5-C ) :   0.9536 B(  3-C ,  7-N ) :   0.9707 
B(  3-C , 10-H ) :   0.9584 B(  5-C ,  6-H ) :   0.9734 B(  5-C ,  8-H ) :   0.9627 
B(  5-C ,  9-H ) :   0.9666 B(  7-N , 11-H ) :   0.9119 B(  7-N , 12-H ) :   0.8869 


-------
TIMINGS
-------

Total SCF time: 0 days 0 hours 0 min 5 sec 

Total time                  ....       5.857 sec
Sum of individual times     ....       5.557 sec  ( 94.9%)

SCF preparation             ....       0.015 sec  (  0.3%)
Fock matrix formation       ....       5.520 sec  ( 94.3%)
  Startup                   ....       0.000 sec  (  0.0% of F)
  Coulomb+Exchange Fock     ....       5.811 sec  (105.3% of F)
Diagonalization             ....       0.000 sec  (  0.0%)
Density matrix formation    ....       0.002 sec  (  0.0%)
Total Energy calculation    ....       0.000 sec  (  0.0%)
Population analysis         ....       0.001 sec  (  0.0%)
Orbital Transformation      ....       0.002 sec  (  0.0%)
Orbital Orthonormalization  ....       0.000 sec  (  0.0%)
DIIS solution               ....       0.010 sec  (  0.2%)
SOSCF solution              ....       0.006 sec  (  0.1%)
Finished LeanSCF after   5.9 sec

Maximum memory used throughout the entire LEANSCF-calculation: 10.6 MB

------------------------------------------------------------------------------
                                ORCA  MP2 
------------------------------------------------------------------------------

Freezing NCore=12 chemical core electrons
MP2 will be done in the AO integral direct mode
The Q1-step will be done using symmetric double matrices
Dimension of the basis                    ...  119
Memory devoted for MP2                    ... 4096 MB   
Memory needed for all in one shot         ...  118 MB
Number of MOs that can be treated together...  630      
MP2 density construction                  ... relaxed
The MP2 gradient is requested => amplitudes will be stored on disk
Total number of MOs              ...   18
Number of MOs treated per batch  ...   18 
Number of batches necessary      ...    1 
OPERATORS   0/  0 PASS   0
-----------------------------------------------
 MP2 CORRELATION ENERGY   :     -0.934480232 Eh
-----------------------------------------------


---------------------
MP2 DENSITY FORMATION
---------------------

Completing the external part of the density      ... done
Storing the unrelaxed density                    ... done

Calculating G(D)                                 ... done
Completing the Lagrangian                        ... done
Solving the Z-vector equations                   ... 
-------------------
SHARK CP-SCF DRIVER
-------------------

Dimension of the orbital basis          ...    119
Dimension of the CPSCF-problem          ...   2280
Number of operators                     ...      1
Max. number of iterations               ...    128
Convergence Tolerance                   ... 1.0e-04
Number of perturbations                 ...      1
Perturbation type                       ... REAL

----------------------------
POPLE LINEAR EQUATION SOLVER
----------------------------

  ITERATION   0:   ||err||_max =   1.1627e-01 (   0.6 sec)
  ITERATION   1:   ||err||_max =   2.9646e-02 (   0.6 sec)
  ITERATION   2:   ||err||_max =   1.2640e-02 (   0.6 sec)
  ITERATION   3:   ||err||_max =   3.0837e-03 (   0.6 sec)
  ITERATION   4:   ||err||_max =   1.0516e-03 (   0.6 sec)
  ITERATION   5:   ||err||_max =   2.6902e-04 (   0.6 sec)
  ITERATION   6:   ||err||_max =   7.8364e-05 (   0.6 sec)
                                                 ... done
Finalizing the relaxed density                   ... done
Transforming P to the AO basis                   ... done
Storing the relaxed density                      ... done

------------------------------------
ENERGY WEIGHTED DENSITY FINALIZATION
------------------------------------

Gathering the parts of the W-matrix              ...                                                      done
Forming the Z-density                            ... done
Transforming Z to the AO basis                   ... done
Calculating G(Z)                                 ... done
Finalizing the W-matrix                          ...                                                      done
Transforming W to the AO basis and storing       ... done

                *********************************************
                * UNRELAXED MP2 DENSITY POPULATION ANALYSIS *
                *********************************************

------------------------------------------------------------------------------
                           ORCA POPULATION ANALYSIS
------------------------------------------------------------------------------
Input electron density              ... 2.pmp2ur
BaseName (.gbw .S,...)              ... 2

                    ********************************
                    * MULLIKEN POPULATION ANALYSIS *
                    ********************************

-----------------------
MULLIKEN ATOMIC CHARGES
-----------------------
   0 C :    0.778644
   1 O :   -0.564615
   2 O :   -0.623917
   3 C :   -0.018999
   4 H :    0.369078
   5 C :   -0.356951
   6 H :    0.124546
   7 N :   -0.691857
   8 H :    0.134069
   9 H :    0.132784
  10 H :    0.159557
  11 H :    0.266933
  12 H :    0.290727
Sum of atomic charges:   -0.0000000

--------------------------------
MULLIKEN REDUCED ORBITAL CHARGES
--------------------------------
  0 C s       :     2.941903  s :     2.941903
      pz      :     0.636518  p :     2.121170
      px      :     0.841411
      py      :     0.643240
      dz2     :     0.025532  d :     0.158284
      dxz     :     0.022855
      dyz     :     0.028599
      dx2y2   :     0.047829
      dxy     :     0.033470
  1 O s       :     3.870235  s :     3.870235
      pz      :     1.459168  p :     4.639889
      px      :     1.506465
      py      :     1.674255
      dz2     :     0.011530  d :     0.054490
      dxz     :     0.012892
      dyz     :     0.007415
      dx2y2   :     0.010206
      dxy     :     0.012448
  2 O s       :     3.834485  s :     3.834485
      pz      :     1.759333  p :     4.740905
      px      :     1.536958
      py      :     1.444613
      dz2     :     0.009041  d :     0.048528
      dxz     :     0.006342
      dyz     :     0.011071
      dx2y2   :     0.013665
      dxy     :     0.008408
  3 C s       :     3.197502  s :     3.197502
      pz      :     1.028232  p :     2.735393
      px      :     0.915303
      py      :     0.791859
      dz2     :     0.017347  d :     0.086103
      dxz     :     0.012809
      dyz     :     0.019269
      dx2y2   :     0.020278
      dxy     :     0.016401
  4 H s       :     0.588289  s :     0.588289
      pz      :     0.008786  p :     0.042634
      px      :     0.023433
      py      :     0.010414
  5 C s       :     3.259535  s :     3.259535
      pz      :     0.969803  p :     3.040737
      px      :     1.021836
      py      :     1.049098
      dz2     :     0.014252  d :     0.056679
      dxz     :     0.012106
      dyz     :     0.007346
      dx2y2   :     0.014677
      dxy     :     0.008299
  6 H s       :     0.859981  s :     0.859981
      pz      :     0.002860  p :     0.015473
      px      :     0.008837
      py      :     0.003776
  7 N s       :     3.599486  s :     3.599486
      pz      :     1.682694  p :     4.036801
      px      :     1.229665
      py      :     1.124442
      dz2     :     0.009090  d :     0.055570
      dxz     :     0.013687
      dyz     :     0.008658
      dx2y2   :     0.014112
      dxy     :     0.010022
  8 H s       :     0.850470  s :     0.850470
      pz      :     0.002848  p :     0.015461
      px      :     0.002827
      py      :     0.009786
  9 H s       :     0.851889  s :     0.851889
      pz      :     0.008016  p :     0.015327
      px      :     0.004069
      py      :     0.003242
 10 H s       :     0.825698  s :     0.825698
      pz      :     0.008215  p :     0.014745
      px      :     0.003908
      py      :     0.002622
 11 H s       :     0.704769  s :     0.704769
      pz      :     0.008108  p :     0.028297
      px      :     0.012832
      py      :     0.007358
 12 H s       :     0.680685  s :     0.680685
      pz      :     0.011187  p :     0.028588
      px      :     0.011832
      py      :     0.005570


                     *******************************
                     * LOEWDIN POPULATION ANALYSIS *
                     *******************************

----------------------
LOEWDIN ATOMIC CHARGES
----------------------
   0 C :    0.223922
   1 O :   -0.288826
   2 O :   -0.196562
   3 C :   -0.023949
   4 H :    0.199813
   5 C :   -0.187547
   6 H :    0.068805
   7 N :   -0.281908
   8 H :    0.073296
   9 H :    0.072058
  10 H :    0.077938
  11 H :    0.126068
  12 H :    0.136891

-------------------------------
LOEWDIN REDUCED ORBITAL CHARGES
-------------------------------
  0 C s       :     2.840529  s :     2.840529
      pz      :     0.752232  p :     2.605302
      px      :     1.010534
      py      :     0.842536
      dz2     :     0.048064  d :     0.330246
      dxz     :     0.045823
      dyz     :     0.064495
      dx2y2   :     0.102590
      dxy     :     0.069275
  1 O s       :     3.543009  s :     3.543009
      pz      :     1.458554  p :     4.664088
      px      :     1.552067
      py      :     1.653467
      dz2     :     0.013147  d :     0.081730
      dxz     :     0.021508
      dyz     :     0.011036
      dx2y2   :     0.017151
      dxy     :     0.018889
  2 O s       :     3.455386  s :     3.455386
      pz      :     1.722407  p :     4.668522
      px      :     1.503555
      py      :     1.442561
      dz2     :     0.011818  d :     0.072654
      dxz     :     0.006910
      dyz     :     0.017241
      dx2y2   :     0.021011
      dxy     :     0.015674
  3 C s       :     2.870156  s :     2.870156
      pz      :     1.054961  p :     2.995526
      px      :     1.004122
      py      :     0.936442
      dz2     :     0.030568  d :     0.158268
      dxz     :     0.022514
      dyz     :     0.035187
      dx2y2   :     0.039478
      dxy     :     0.030521
  4 H s       :     0.677644  s :     0.677644
      pz      :     0.026320  p :     0.122543
      px      :     0.066891
      py      :     0.029332
  5 C s       :     2.916722  s :     2.916722
      pz      :     1.043030  p :     3.180161
      px      :     1.059160
      py      :     1.077971
      dz2     :     0.023741  d :     0.090664
      dxz     :     0.020051
      dyz     :     0.011327
      dx2y2   :     0.023132
      dxy     :     0.012413
  6 H s       :     0.886615  s :     0.886615
      pz      :     0.007846  p :     0.044579
      px      :     0.026030
      py      :     0.010703
  7 N s       :     3.180631  s :     3.180631
      pz      :     1.639556  p :     4.017290
      px      :     1.206226
      py      :     1.171508
      dz2     :     0.011181  d :     0.083987
      dxz     :     0.017050
      dyz     :     0.012937
      dx2y2   :     0.024276
      dxy     :     0.018544
  8 H s       :     0.881508  s :     0.881508
      pz      :     0.007731  p :     0.045195
      px      :     0.008076
      py      :     0.029389
  9 H s       :     0.882921  s :     0.882921
      pz      :     0.024274  p :     0.045021
      px      :     0.011652
      py      :     0.009095
 10 H s       :     0.877956  s :     0.877956
      pz      :     0.024441  p :     0.044106
      px      :     0.011844
      py      :     0.007821
 11 H s       :     0.788539  s :     0.788539
      pz      :     0.025254  p :     0.085393
      px      :     0.039115
      py      :     0.021024
 12 H s       :     0.775487  s :     0.775487
      pz      :     0.037001  p :     0.087622
      px      :     0.034343
      py      :     0.016279


                      *****************************
                      * MAYER POPULATION ANALYSIS *
                      *****************************

  NA   - Mulliken gross atomic population
  ZA   - Total nuclear charge
  QA   - Mulliken gross atomic charge
  VA   - Mayer's total valence
  BVA  - Mayer's bonded valence
  FA   - Mayer's free valence

  ATOM       NA         ZA         QA         VA         BVA        FA
  0 C      5.2214     6.0000     0.7786     3.7480     3.4629     0.2851
  1 O      8.5646     8.0000    -0.5646     2.1603     1.7633     0.3970
  2 O      8.6239     8.0000    -0.6239     2.0947     1.7395     0.3552
  3 C      6.0190     6.0000    -0.0190     3.8348     3.5620     0.2727
  4 H      0.6309     1.0000     0.3691     0.8785     0.8345     0.0440
  5 C      6.3570     6.0000    -0.3570     3.9130     3.6596     0.2534
  6 H      0.8755     1.0000     0.1245     0.9633     0.9167     0.0466
  7 N      7.6919     7.0000    -0.6919     2.9345     2.6108     0.3237
  8 H      0.8659     1.0000     0.1341     0.9590     0.9125     0.0465
  9 H      0.8672     1.0000     0.1328     0.9619     0.9155     0.0464
 10 H      0.8404     1.0000     0.1596     0.9457     0.8986     0.0471
 11 H      0.7331     1.0000     0.2669     0.9156     0.8699     0.0457
 12 H      0.7093     1.0000     0.2907     0.9114     0.8662     0.0452

  Mayer bond orders larger than 0.100000
B(  0-C ,  1-O ) :   1.7013 B(  0-C ,  2-O ) :   0.9261 B(  0-C ,  3-C ) :   0.8803 
B(  2-O ,  4-H ) :   0.8056 B(  3-C ,  5-C ) :   0.9012 B(  3-C ,  7-N ) :   0.9161 
B(  3-C , 10-H ) :   0.9216 B(  5-C ,  6-H ) :   0.9369 B(  5-C ,  8-H ) :   0.9264 
B(  5-C ,  9-H ) :   0.9304 B(  7-N , 11-H ) :   0.8750 B(  7-N , 12-H ) :   0.8510 



                *******************************************
                * RELAXED MP2 DENSITY POPULATION ANALYSIS *
                *******************************************

------------------------------------------------------------------------------
                           ORCA POPULATION ANALYSIS
------------------------------------------------------------------------------
Input electron density              ... 2.pmp2re
BaseName (.gbw .S,...)              ... 2

                    ********************************
                    * MULLIKEN POPULATION ANALYSIS *
                    ********************************

-----------------------
MULLIKEN ATOMIC CHARGES
-----------------------
   0 C :    0.590451
   1 O :   -0.434349
   2 O :   -0.524713
   3 C :   -0.029086
   4 H :    0.343978
   5 C :   -0.346138
   6 H :    0.117364
   7 N :   -0.630433
   8 H :    0.125902
   9 H :    0.123561
  10 H :    0.142723
  11 H :    0.252350
  12 H :    0.268389
Sum of atomic charges:   -0.0000000

--------------------------------
MULLIKEN REDUCED ORBITAL CHARGES
--------------------------------
  0 C s       :     2.961215  s :     2.961215
      pz      :     0.731201  p :     2.299607
      px      :     0.861584
      py      :     0.706822
      dz2     :     0.023378  d :     0.148727
      dxz     :     0.021289
      dyz     :     0.027638
      dx2y2   :     0.045646
      dxy     :     0.030775
  1 O s       :     3.846449  s :     3.846449
      pz      :     1.415322  p :     4.536102
      px      :     1.490563
      py      :     1.630217
      dz2     :     0.010741  d :     0.051798
      dxz     :     0.011813
      dyz     :     0.007416
      dx2y2   :     0.010333
      dxy     :     0.011495
  2 O s       :     3.816807  s :     3.816807
      pz      :     1.725786  p :     4.660858
      px      :     1.507003
      py      :     1.428069
      dz2     :     0.009191  d :     0.047048
      dxz     :     0.006423
      dyz     :     0.010244
      dx2y2   :     0.012345
      dxy     :     0.008845
  3 C s       :     3.174970  s :     3.174970
      pz      :     1.015354  p :     2.775025
      px      :     0.944558
      py      :     0.815113
      dz2     :     0.015437  d :     0.079091
      dxz     :     0.011923
      dyz     :     0.018699
      dx2y2   :     0.017937
      dxy     :     0.015094
  4 H s       :     0.615212  s :     0.615212
      pz      :     0.009153  p :     0.040810
      px      :     0.021347
      py      :     0.010310
  5 C s       :     3.240448  s :     3.240448
      pz      :     0.978656  p :     3.053982
      px      :     1.024111
      py      :     1.051215
      dz2     :     0.013142  d :     0.051707
      dxz     :     0.010600
      dyz     :     0.006773
      dx2y2   :     0.013491
      dxy     :     0.007702
  6 H s       :     0.867883  s :     0.867883
      pz      :     0.003072  p :     0.014753
      px      :     0.007876
      py      :     0.003805
  7 N s       :     3.581294  s :     3.581294
      pz      :     1.663062  p :     3.996350
      px      :     1.211801
      py      :     1.121487
      dz2     :     0.008747  d :     0.052789
      dxz     :     0.012999
      dyz     :     0.008996
      dx2y2   :     0.012131
      dxy     :     0.009916
  8 H s       :     0.859382  s :     0.859382
      pz      :     0.003047  p :     0.014716
      px      :     0.003051
      py      :     0.008618
  9 H s       :     0.861850  s :     0.861850
      pz      :     0.007191  p :     0.014589
      px      :     0.004024
      py      :     0.003375
 10 H s       :     0.843354  s :     0.843354
      pz      :     0.007343  p :     0.013923
      px      :     0.003871
      py      :     0.002709
 11 H s       :     0.720444  s :     0.720444
      pz      :     0.008369  p :     0.027205
      px      :     0.011654
      py      :     0.007181
 12 H s       :     0.704203  s :     0.704203
      pz      :     0.010740  p :     0.027408
      px      :     0.010948
      py      :     0.005720


                     *******************************
                     * LOEWDIN POPULATION ANALYSIS *
                     *******************************

----------------------
LOEWDIN ATOMIC CHARGES
----------------------
   0 C :    0.145410
   1 O :   -0.215778
   2 O :   -0.160985
   3 C :   -0.042088
   4 H :    0.190329
   5 C :   -0.200689
   6 H :    0.070615
   7 N :   -0.270740
   8 H :    0.075250
   9 H :    0.073166
  10 H :    0.078464
  11 H :    0.125264
  12 H :    0.131782

-------------------------------
LOEWDIN REDUCED ORBITAL CHARGES
-------------------------------
  0 C s       :     2.842893  s :     2.842893
      pz      :     0.815468  p :     2.688561
      px      :     1.005891
      py      :     0.867203
      dz2     :     0.045280  d :     0.323137
      dxz     :     0.044420
      dyz     :     0.064251
      dx2y2   :     0.102193
      dxy     :     0.066993
  1 O s       :     3.545322  s :     3.545322
      pz      :     1.424554  p :     4.589041
      px      :     1.541133
      py      :     1.623353
      dz2     :     0.013406  d :     0.081415
      dxz     :     0.020930
      dyz     :     0.011162
      dx2y2   :     0.017405
      dxy     :     0.018512
  2 O s       :     3.460942  s :     3.460942
      pz      :     1.697680  p :     4.626616
      px      :     1.490798
      py      :     1.438138
      dz2     :     0.012531  d :     0.073427
      dxz     :     0.007023
      dyz     :     0.017298
      dx2y2   :     0.020452
      dxy     :     0.016124
  3 C s       :     2.872617  s :     2.872617
      pz      :     1.055217  p :     3.017953
      px      :     1.019678
      py      :     0.943058
      dz2     :     0.028534  d :     0.151518
      dxz     :     0.022166
      dyz     :     0.035159
      dx2y2   :     0.036849
      dxy     :     0.028811
  4 H s       :     0.689273  s :     0.689273
      pz      :     0.026353  p :     0.120397
      px      :     0.064916
      py      :     0.029128
  5 C s       :     2.918947  s :     2.918947
      pz      :     1.048657  p :     3.196235
      px      :     1.063987
      py      :     1.083591
      dz2     :     0.022496  d :     0.085506
      dxz     :     0.018461
      dyz     :     0.010712
      dx2y2   :     0.022034
      dxy     :     0.011803
  6 H s       :     0.885060  s :     0.885060
      pz      :     0.008130  p :     0.044325
      px      :     0.025446
      py      :     0.010749
  7 N s       :     3.181685  s :     3.181685
      pz      :     1.630587  p :     4.007087
      px      :     1.205015
      py      :     1.171486
      dz2     :     0.010920  d :     0.081967
      dxz     :     0.016668
      dyz     :     0.013119
      dx2y2   :     0.022615
      dxy     :     0.018645
  8 H s       :     0.879820  s :     0.879820
      pz      :     0.007990  p :     0.044931
      px      :     0.008241
      py      :     0.028699
  9 H s       :     0.882206  s :     0.882206
      pz      :     0.023783  p :     0.044628
      px      :     0.011654
      py      :     0.009190
 10 H s       :     0.877675  s :     0.877675
      pz      :     0.023718  p :     0.043861
      px      :     0.012076
      py      :     0.008068
 11 H s       :     0.790447  s :     0.790447
      pz      :     0.025369  p :     0.084288
      px      :     0.038078
      py      :     0.020841
 12 H s       :     0.781865  s :     0.781865
      pz      :     0.036712  p :     0.086353
      px      :     0.033335
      py      :     0.016306


                      *****************************
                      * MAYER POPULATION ANALYSIS *
                      *****************************

  NA   - Mulliken gross atomic population
  ZA   - Total nuclear charge
  QA   - Mulliken gross atomic charge
  VA   - Mayer's total valence
  BVA  - Mayer's bonded valence
  FA   - Mayer's free valence

  ATOM       NA         ZA         QA         VA         BVA        FA
  0 C      5.4095     6.0000     0.5905     3.9720     3.7043     0.2678
  1 O      8.4343     8.0000    -0.4343     2.3246     1.9428     0.3818
  2 O      8.5247     8.0000    -0.5247     2.2112     1.8643     0.3469
  3 C      6.0291     6.0000    -0.0291     3.9035     3.6352     0.2684
  4 H      0.6560     1.0000     0.3440     0.8992     0.8562     0.0430
  5 C      6.3461     6.0000    -0.3461     3.9375     3.6860     0.2515
  6 H      0.8826     1.0000     0.1174     0.9652     0.9186     0.0466
  7 N      7.6304     7.0000    -0.6304     2.9997     2.6798     0.3198
  8 H      0.8741     1.0000     0.1259     0.9632     0.9169     0.0463
  9 H      0.8764     1.0000     0.1236     0.9663     0.9200     0.0464
 10 H      0.8573     1.0000     0.1427     0.9512     0.9041     0.0471
 11 H      0.7476     1.0000     0.2524     0.9231     0.8773     0.0458
 12 H      0.7316     1.0000     0.2684     0.9269     0.8821     0.0448

  Mayer bond orders larger than 0.100000
B(  0-C ,  1-O ) :   1.8211 B(  0-C ,  2-O ) :   1.0078 B(  0-C ,  3-C ) :   0.8861 
B(  2-O ,  4-H ) :   0.8119 B(  3-C ,  5-C ) :   0.9130 B(  3-C ,  7-N ) :   0.9530 
B(  3-C , 10-H ) :   0.9110 B(  5-C ,  6-H ) :   0.9324 B(  5-C ,  8-H ) :   0.9219 
B(  5-C ,  9-H ) :   0.9286 B(  7-N , 11-H ) :   0.8758 B(  7-N , 12-H ) :   0.8545 



----------------------------------
MP2 DERIVATIVE INTEGRAL GENERATION
----------------------------------

Input SCF Electron Density              ... 2.scfp
Input Correlated Electron Density       ... 2.pmp2re
Input Energy Weighted Density           ... 2.wmp2.tmp
Input Wavefunction Amplitudes           ... 2.mp2tsaa.tmp

Nuclear repulsion gradient              ... done (  0.0 sec)
HCore & Overlap gradient  (SHARK)       ... done (  0.0 sec)
Analytic two-electron gradient terms    ... 
  Batch handling in the gradient evaluation:
  General contraction                   ... not used
  Memory available                      ... 4089.5 MB
  Memory per occupied orbital in Q2     ...    1.9 MB
  Memory per occupied orbital in Q3     ...    0.0 MB
  Total memory requirement per |i>      ...    2.0 MB
  Number of orbitals treated per batch  ...     18
  Number of batches to be done          ...      1
done (  3.4 sec)

---------------------------------------
MP2 TOTAL ENERGY:     -322.816584108 Eh
---------------------------------------

The final MP2 gradient
  0:   0.01758977   0.00095970  -0.01141385
  1:  -0.02533272   0.01783787   0.01884808
  2:   0.00899440  -0.02057164  -0.01434616
  3:   0.00460829  -0.00527323   0.00377036
  4:  -0.00048572   0.00585491   0.00423762
  5:  -0.00163658   0.00017498  -0.00464489
  6:   0.00131378   0.00017488   0.00031888
  7:  -0.00507381   0.00541799  -0.00242294
  8:   0.00137147  -0.00244880   0.00094849
  9:  -0.00061237   0.00077179   0.00040882
 10:  -0.00176596  -0.00093620   0.00293789
 11:  -0.00085451  -0.00091479   0.00057849
 12:   0.00188396  -0.00104746   0.00077921

-----------------------------------
NORM OF THE MP2 GRADIENT:  0.051944
-----------------------------------

Maximum memory used throughout the entire MP2-calculation: 135.2 MB

-------------------------   --------------------
FINAL SINGLE POINT ENERGY      -322.816584107676
-------------------------   --------------------

------------------------------------------------------------------------------
                         ORCA GEOMETRY RELAXATION STEP
------------------------------------------------------------------------------

Reading the OPT-File                    .... done
Getting information on internals        .... done
Copying old internal coords+grads       .... done
Making the new internal coordinates     .... (2022 redundants) done
Validating the new internal coordinates .... (2022 redundants) done
Calculating the B-matrix                .... done
Calculating the G,G- and P matrices     .... done
Transforming gradient to internals      .... done
Projecting the internal gradient        .... done
Number of atoms                         ....  13
Number of internal coordinates          ....  50
Current Energy                          ....  -322.816584108 Eh
Current gradient norm                   ....     0.051944468 Eh/bohr
Maximum allowed component of the step   ....  0.300
Current trust radius                    ....  0.300
Evaluating the initial hessian          ....  (Almloef) done
Projecting the Hessian                  .... done
Forming the augmented Hessian           .... done
Diagonalizing the augmented Hessian     .... done
Last element of RFO vector              ....  0.992897682
Lowest eigenvalues of augmented Hessian:
 -0.002786343  0.010275518  0.011384333  0.016132854  0.018209321
Length of the computed step             ....  0.119822413
The final length of the internal step   ....  0.119822413
Converting the step to Cartesian space:
 Initial RMS(Int)=    0.0169454481
Transforming coordinates:
 Iter   0:  RMS(Cart)=    0.0243899798 RMS(Int)=    0.0168810465
done
Storing new coordinates                 .... done

                                .--------------------.
          ----------------------|Geometry convergence|-------------------------
          Item                value                   Tolerance       Converged
          ---------------------------------------------------------------------
          RMS gradient        0.0062405850            0.0001000000      NO
          MAX gradient        0.0361925663            0.0003000000      NO
          RMS step            0.0169454481            0.0020000000      NO
          MAX step            0.0512287673            0.0040000000      NO
          -------------------------------------------------------------------------
          ........................................................
          Max(Bonds)      0.0170      Max(Angles)    1.97
          Max(Dihed)        2.94      Max(Improp)    0.00
          ---------------------------------------------------------------------

The optimization has not yet converged - more geometry cycles are needed


    ---------------------------------------------------------------------------
                         Redundant Internal Coordinates
                            (Angstroem and degrees)

        Definition                    Value    dE/dq     Step     New-Value
    ----------------------------------------------------------------------------
     1. B(O   1,C   0)                1.2010 -0.036193  0.0170    1.2180   
     2. B(O   2,C   0)                1.3355 -0.017313  0.0133    1.3488   
     3. B(C   3,C   0)                1.5171  0.001442 -0.0029    1.5142   
     4. B(H   4,O   2)                0.9710  0.001471 -0.0016    0.9695   
     5. B(C   5,C   3)                1.5418  0.001583 -0.0023    1.5395   
     6. B(H   6,C   5)                1.0881 -0.001277  0.0018    1.0899   
     7. B(N   7,C   3)                1.4487 -0.004701  0.0048    1.4535   
     8. B(H   8,C   5)                1.0869 -0.002473  0.0036    1.0904   
     9. B(H   9,C   5)                1.0888 -0.000817  0.0012    1.0900   
    10. B(H  10,C   3)                1.0960  0.002994 -0.0045    1.0915   
    11. B(H  11,N   7)                1.0136  0.000988 -0.0012    1.0124   
    12. B(H  12,O   1)                2.3729  0.001209 -0.0158    2.3570   
    13. B(H  12,N   7)                1.0155  0.001377 -0.0015    1.0140   
    14. A(O   1,C   0,C   3)          124.88  0.001349   -0.32    124.57   
    15. A(O   2,C   0,C   3)          112.13  0.004951   -0.60    111.53   
    16. A(O   1,C   0,O   2)          122.93 -0.006255    0.81    123.75   
    17. A(C   0,O   2,H   4)          110.44  0.012943   -1.97    108.47   
    18. A(C   0,C   3,H  10)          108.71  0.000810   -0.40    108.31   
    19. A(C   0,C   3,N   7)          108.83  0.002891   -0.85    107.98   
    20. A(C   0,C   3,C   5)          106.73 -0.002622    0.61    107.34   
    21. A(C   5,C   3,N   7)          114.48 -0.001254    0.51    114.99   
    22. A(N   7,C   3,H  10)          108.82 -0.001297    0.32    109.14   
    23. A(C   5,C   3,H  10)          109.13  0.001584   -0.25    108.89   
    24. A(H   8,C   5,H   9)          109.00 -0.000265    0.03    109.03   
    25. A(H   6,C   5,H   9)          108.92  0.000526   -0.12    108.79   
    26. A(C   3,C   5,H   6)          109.66 -0.000071    0.03    109.69   
    27. A(C   3,C   5,H   9)          110.05  0.001363   -0.26    109.79   
    28. A(H   6,C   5,H   8)          108.74  0.001224   -0.18    108.55   
    29. A(C   3,C   5,H   8)          110.45 -0.002738    0.50    110.95   
[...]
MULLIKEN REDUCED ORBITAL CHARGES
--------------------------------
  0 C s       :     2.968554  s :     2.968554
      pz      :     0.733589  p :     2.289925
      px      :     0.859398
      py      :     0.696938
      dz2     :     0.020252  d :     0.142338
      dxz     :     0.020157
      dyz     :     0.025424
      dx2y2   :     0.045634
      dxy     :     0.030872
  1 O s       :     3.860686  s :     3.860686
      pz      :     1.411219  p :     4.528980
      px      :     1.485990
      py      :     1.631771
      dz2     :     0.009934  d :     0.050972
      dxz     :     0.011781
      dyz     :     0.007231
      dx2y2   :     0.010483
      dxy     :     0.011542
  2 O s       :     3.830506  s :     3.830506
      pz      :     1.733859  p :     4.649596
      px      :     1.493422
      py      :     1.422315
      dz2     :     0.008903  d :     0.047822
      dxz     :     0.006628
      dyz     :     0.010283
      dx2y2   :     0.013450
      dxy     :     0.008558
  3 C s       :     3.176667  s :     3.176667
      pz      :     1.020969  p :     2.784970
      px      :     0.948098
      py      :     0.815903
      dz2     :     0.015469  d :     0.078973
      dxz     :     0.012076
      dyz     :     0.017991
      dx2y2   :     0.017885
      dxy     :     0.015552
  4 H s       :     0.616650  s :     0.616650
      pz      :     0.009469  p :     0.040731
      px      :     0.021775
      py      :     0.009487
  5 C s       :     3.239928  s :     3.239928
      pz      :     0.977699  p :     3.051971
      px      :     1.021949
      py      :     1.052323
      dz2     :     0.013145  d :     0.051684
      dxz     :     0.010634
      dyz     :     0.006778
      dx2y2   :     0.013236
      dxy     :     0.007892
  6 H s       :     0.867096  s :     0.867096
      pz      :     0.003056  p :     0.014708
      px      :     0.007832
      py      :     0.003820
  7 N s       :     3.592550  s :     3.592550
      pz      :     1.618236  p :     3.973823
      px      :     1.236501
      py      :     1.119085
      dz2     :     0.010489  d :     0.053568
      dxz     :     0.011935
      dyz     :     0.008746
      dx2y2   :     0.012280
      dxy     :     0.010119
  8 H s       :     0.856497  s :     0.856497
      pz      :     0.002997  p :     0.014646
      px      :     0.003032
      py      :     0.008617
  9 H s       :     0.863828  s :     0.863828
      pz      :     0.007219  p :     0.014578
      px      :     0.004013
      py      :     0.003346
 10 H s       :     0.840471  s :     0.840471
      pz      :     0.007369  p :     0.014060
      px      :     0.003949
      py      :     0.002741
 11 H s       :     0.722292  s :     0.722292
      pz      :     0.007958  p :     0.027112
      px      :     0.011918
      py      :     0.007237
 12 H s       :     0.706508  s :     0.706508
      pz      :     0.011292  p :     0.027310
      px      :     0.010349
      py      :     0.005668


                     *******************************
                     * LOEWDIN POPULATION ANALYSIS *
                     *******************************

----------------------
LOEWDIN ATOMIC CHARGES
----------------------
   0 C :    0.164315
   1 O :   -0.224159
   2 O :   -0.173732
   3 C :   -0.043819
   4 H :    0.189063
   5 C :   -0.200897
   6 H :    0.071513
   7 N :   -0.268115
   8 H :    0.077267
   9 H :    0.072686
  10 H :    0.080358
  11 H :    0.124418
  12 H :    0.131102

-------------------------------
LOEWDIN REDUCED ORBITAL CHARGES
-------------------------------
  0 C s       :     2.851838  s :     2.851838
      pz      :     0.804310  p :     2.677717
      px      :     1.008845
      py      :     0.864561
      dz2     :     0.038661  d :     0.306130
      dxz     :     0.041061
      dyz     :     0.057711
      dx2y2   :     0.101834
      dxy     :     0.066863
  1 O s       :     3.560365  s :     3.560365
      pz      :     1.417478  p :     4.584869
      px      :     1.538037
      py      :     1.629354
      dz2     :     0.012525  d :     0.078925
      dxz     :     0.019722
      dyz     :     0.010436
      dx2y2   :     0.017346
      dxy     :     0.018896
  2 O s       :     3.480641  s :     3.480641
      pz      :     1.706213  p :     4.620949
      px      :     1.479328
      py      :     1.435407
      dz2     :     0.011881  d :     0.072143
      dxz     :     0.007021
      dyz     :     0.016567
      dx2y2   :     0.022033
      dxy     :     0.014641
  3 C s       :     2.871789  s :     2.871789
      pz      :     1.058000  p :     3.020816
      px      :     1.021822
      py      :     0.940994
      dz2     :     0.028634  d :     0.151215
      dxz     :     0.022521
      dyz     :     0.033501
      dx2y2   :     0.036748
      dxy     :     0.029810
  4 H s       :     0.690685  s :     0.690685
      pz      :     0.027164  p :     0.120252
      px      :     0.066485
      py      :     0.026604
  5 C s       :     2.918679  s :     2.918679
      pz      :     1.048832  p :     3.196538
      px      :     1.063430
      py      :     1.084277
      dz2     :     0.022509  d :     0.085679
      dxz     :     0.018599
      dyz     :     0.010790
      dx2y2   :     0.021612
      dxy     :     0.012170
  6 H s       :     0.884390  s :     0.884390
      pz      :     0.008048  p :     0.044096
      px      :     0.025230
      py      :     0.010818
  7 N s       :     3.193424  s :     3.193424
      pz      :     1.591188  p :     3.992392
      px      :     1.231273
      py      :     1.169931
      dz2     :     0.013453  d :     0.082299
      dxz     :     0.015354
      dyz     :     0.012716
      dx2y2   :     0.022375
      dxy     :     0.018402
  8 H s       :     0.878109  s :     0.878109
      pz      :     0.007841  p :     0.044624
      px      :     0.008170
      py      :     0.028614
  9 H s       :     0.882948  s :     0.882948
      pz      :     0.023696  p :     0.044365
      px      :     0.011586
      py      :     0.009083
 10 H s       :     0.875246  s :     0.875246
      pz      :     0.023904  p :     0.044397
      px      :     0.012271
      py      :     0.008222
 11 H s       :     0.791620  s :     0.791620
      pz      :     0.023638  p :     0.083962
      px      :     0.039371
      py      :     0.020954
 12 H s       :     0.782994  s :     0.782994
      pz      :     0.039254  p :     0.085905
      px      :     0.030600
      py      :     0.016050


                      *****************************
                      * MAYER POPULATION ANALYSIS *
                      *****************************

  NA   - Mulliken gross atomic population
  ZA   - Total nuclear charge
  QA   - Mulliken gross atomic charge
  VA   - Mayer's total valence
  BVA  - Mayer's bonded valence
  FA   - Mayer's free valence

  ATOM       NA         ZA         QA         VA         BVA        FA
  0 C      5.4008     6.0000     0.5992     3.9460     3.6715     0.2745
  1 O      8.4406     8.0000    -0.4406     2.3202     1.9312     0.3890
  2 O      8.5279     8.0000    -0.5279     2.2107     1.8594     0.3513
  3 C      6.0406     6.0000    -0.0406     3.9085     3.6394     0.2692
  4 H      0.6574     1.0000     0.3426     0.9015     0.8578     0.0437
  5 C      6.3436     6.0000    -0.3436     3.9350     3.6838     0.2512
  6 H      0.8818     1.0000     0.1182     0.9649     0.9182     0.0467
  7 N      7.6199     7.0000    -0.6199     3.0040     2.6834     0.3206
  8 H      0.8711     1.0000     0.1289     0.9632     0.9169     0.0462
  9 H      0.8784     1.0000     0.1216     0.9663     0.9198     0.0466
 10 H      0.8545     1.0000     0.1455     0.9506     0.9037     0.0469
 11 H      0.7494     1.0000     0.2506     0.9228     0.8767     0.0461
 12 H      0.7338     1.0000     0.2662     0.9262     0.8811     0.0451

  Mayer bond orders larger than 0.100000
B(  0-C ,  1-O ) :   1.8036 B(  0-C ,  2-O ) :   0.9965 B(  0-C ,  3-C ) :   0.8878 
B(  2-O ,  4-H ) :   0.8133 B(  3-C ,  5-C ) :   0.9132 B(  3-C ,  7-N ) :   0.9567 
B(  3-C , 10-H ) :   0.9101 B(  5-C ,  6-H ) :   0.9320 B(  5-C ,  8-H ) :   0.9209 
B(  5-C ,  9-H ) :   0.9289 B(  7-N , 11-H ) :   0.8754 B(  7-N , 12-H ) :   0.8555 



----------------------------------
MP2 DERIVATIVE INTEGRAL GENERATION
----------------------------------

Input SCF Electron Density              ... 2.scfp
Input Correlated Electron Density       ... 2.pmp2re
Input Energy Weighted Density           ... 2.wmp2.tmp
Input Wavefunction Amplitudes           ... 2.mp2tsaa.tmp

Nuclear repulsion gradient              ... done (  0.0 sec)
HCore & Overlap gradient  (SHARK)       ... done (  0.0 sec)
Analytic two-electron gradient terms    ... 
  Batch handling in the gradient evaluation:
  General contraction                   ... not used
  Memory available                      ... 4089.1 MB
  Memory per occupied orbital in Q2     ...    1.9 MB
  Memory per occupied orbital in Q3     ...    0.0 MB
  Total memory requirement per |i>      ...    2.0 MB
  Number of orbitals treated per batch  ...     18
  Number of batches to be done          ...      1
done (  3.5 sec)

---------------------------------------
MP2 TOTAL ENERGY:     -322.818647287 Eh
---------------------------------------

The final MP2 gradient
  0:  -0.00004789  -0.00005825  -0.00002963
  1:   0.00006484  -0.00001282  -0.00000731
  2:  -0.00001018   0.00003762   0.00001071
  3:  -0.00000010   0.00002319   0.00003295
  4:  -0.00000759   0.00001141   0.00000683
  5:  -0.00001275  -0.00000105   0.00000436
  6:   0.00000094  -0.00000351  -0.00000351
  7:   0.00000895   0.00003174  -0.00002080
  8:   0.00000956   0.00000133   0.00000320
  9:  -0.00000443   0.00000503  -0.00000460
 10:   0.00000769  -0.00000874   0.00000131
 11:   0.00000049   0.00000429  -0.00000480
 12:  -0.00000953  -0.00003023   0.00001129

-----------------------------------
NORM OF THE MP2 GRADIENT:  0.000133
-----------------------------------

Maximum memory used throughout the entire MP2-calculation: 135.6 MB

-------------------------   --------------------
FINAL SINGLE POINT ENERGY      -322.818647287364
-------------------------   --------------------

                                *** OPTIMIZATION RUN DONE ***


------------------------------------------------------------------------------
                              ORCA PROPERTY CALCULATIONS
------------------------------------------------------------------------------

GBWName                                 ... 2.gbw
Number of atoms                         ...     13
Number of basis functions               ...    119
Max core memory                         ...   4096 MB

Electric properties:
Dipole moment                           ... YES
Quadrupole moment                       ...  NO
Static polarizability (Dipole/Dipole)   ...  NO
Static polarizability (Dipole/Quad.)    ...  NO
Static polarizability (Quad./Quad.)     ...  NO
Static polarizability (Velocity)        ...  NO
Static hyperpolarizability              ...  NO

Atomic electric properties:
Dipole moment                           ...  NO
Quadrupole moment                       ...  NO
Static polarizability                   ...  NO

Choice of electric origin               ... Center of mass
Position of electric origin             ...    -9.581122    -0.639763    -3.934597

General magnetic properties:
Magnetizability                         ...  NO

EPR properties:
g-Tensor (aka g-matrix)                 ...  NO
Zero-Field splitting spin-orbit         ...  NO
Zero-field splitting spin-spin          ...  NO
Hyperfine couplings                     ...  NO (   0 nuclei)
Quadrupole couplings                    ...  NO (   0 nuclei)
Contact density                         ...  NO (   0 nuclei)

NMR properties:
Chemical shifts                         ...  NO (   0 nuclei)
Spin-rotation constants                 ...  NO (   0 nuclei)
Spin-spin couplings                     ...  NO (   0 nuclei,    0 pairs)

Choice of magnetic origin               ... GIAO
Position of magnetic origin             ...     0.000000     0.000000     0.000000

Properties with geometric perturbations:
SCF Hessian                             ...  NO
IR spectrum                             ...  NO
VCD spectrum                            ...  NO
X-ray spectroscopy properties:
SCF XES/XAS/RIXS spectra                ...  NO

SCF SOC stabilization energy            ...  NO
Diagonal Born-Oppenheimer correction    ...  NO

-------------
DIPOLE MOMENT
-------------

Method             : SCF
Type of density    : Electron Density
Multiplicity       :   1
Irrep              :   0
Energy             :  -321.8798438000691249 Eh
Basis              : AO
                                X                 Y                 Z
Electronic contribution:      5.278274605       1.484170975       1.992109820
Nuclear contribution   :     -6.047459381      -0.993885605      -2.288827118
                        -----------------------------------------
Total Dipole Moment    :     -0.769184776       0.490285369      -0.296717298
                        -----------------------------------------
Magnitude (a.u.)       :      0.959200770
Magnitude (Debye)      :      2.438094599



--------------------
Rotational spectrum 
--------------------
 
Rotational constants in cm-1:             0.168011             0.101144             0.078939 
Rotational constants in MHz :          5036.828146          3032.228768          2366.543001 

Dipole components along the rotational axes: 
x,y,z [a.u.] :    -0.344069    -0.877193    -0.179484 
x,y,z [Debye]:    -0.874553    -2.229648    -0.456212 

 

-------------
DIPOLE MOMENT
-------------

Method             : MP2
Type of density    : Electron Density
Multiplicity       :   1
Level              : Unrelaxed density
Irrep              :   0
Energy             :     0.0000000000000000 Eh
Basis              : AO
                                X                 Y                 Z
Electronic contribution:      5.313777696       1.473669468       1.982295093
Nuclear contribution   :     -6.047459381      -0.993885605      -2.288827118
                        -----------------------------------------
Total Dipole Moment    :     -0.733681685       0.479783863      -0.306532026
                        -----------------------------------------
Magnitude (a.u.)       :      0.928678229
Magnitude (Debye)      :      2.360512464



--------------------
Rotational spectrum 
--------------------
 
Rotational constants in cm-1:             0.168011             0.101144             0.078939 
Rotational constants in MHz :          5036.828146          3032.228768          2366.543001 

Dipole components along the rotational axes: 
x,y,z [a.u.] :    -0.325478    -0.847598    -0.195155 
x,y,z [Debye]:    -0.827299    -2.154422    -0.496043 

 

-------------
DIPOLE MOMENT
-------------

Method             : MP2
Type of density    : Electron Density
Multiplicity       :   1
Level              : Relaxed density
Irrep              :   0
Energy             :     0.0000000000000000 Eh
Basis              : AO
                                X                 Y                 Z
Electronic contribution:      5.475308489       1.450566302       1.964736610
Nuclear contribution   :     -6.047459381      -0.993885605      -2.288827118
                        -----------------------------------------
Total Dipole Moment    :     -0.572150892       0.456680697      -0.324090508
                        -----------------------------------------
Magnitude (a.u.)       :      0.800592630
Magnitude (Debye)      :      2.034944746



--------------------
Rotational spectrum 
--------------------
 
Rotational constants in cm-1:             0.168011             0.101144             0.078939 
Rotational constants in MHz :          5036.828146          3032.228768          2366.543001 

Dipole components along the rotational axes: 
x,y,z [a.u.] :    -0.220221    -0.730695    -0.241942 
x,y,z [Debye]:    -0.559758    -1.857279    -0.614967 

 

Dipole moment calculation done in   0.0 sec 

Maximum memory used throughout the entire PROP-calculation: 5.5 MB

--------------------------------
SUGGESTED CITATIONS FOR THIS RUN
--------------------------------

Below you find a list of papers that are relevant to this ORCA run
We neither can nor want to force you to cite these papers, but we appreciate if you do
You receive ORCA, which is the product of decades of hard work by many enthusiastic individuals, for free
The only thing we kindly ask in return is that you cite our papers,
We deeply appreciate it, if you show your appreciation for ORCA by not just citing the generic ORCA reference.

Please note that relegating all ORCA citations to the supporting information does *not* help us.
SI sections are not indexed - citations you put there will not count into any citation statistics
But we need these citations in order to attract the funding resources that allow us to do what we are doing

Therefore, if you are a happy ORCA user, please consider citing a few of the papers listed below in the main body of your paper

In addition to the list printed below, the program has created the file 2.bibtex that contains the list in bibtex format
You can import this file easily into all common literature databanks and citation aid programs


List of essential papers. We consider these as the minimum necessary citations

  1. Neese, F.
     Software update: the ORCA program system, version 6.0
     WIRES Comput. Molec. Sci. 2025 15(1), e70019
     doi.org/10.1002/wcms.7019

List of papers to cite with high priority. The work reported in these papers was absolutely
necessary for this run to complete.
Our perspective: the developers of density functionals and basis sets usually get cited in chemistry papers
Good! But without the algorithms to do something with them, the functionals or basis sets would not do anything.
Hence, in our opinion, the algorithm design and method developments papers are equally worthy of getting cited

  1. Neese, F.
     The SHARK Integral Generation and Digestion System
     J. Comp. Chem. 2022 44(3), 381
     doi.org/10.1002/jcc.26942

List of suggested additional citations. These are papers that are important in the 'surrounding' of 
of this run, or papers that preceded the highly important papers. If you like your results we are grateful for a citation.

  1. Neese, F.
     The ORCA program system
     WIRES Comput. Molec. Sci. 2012 2(1), 73-78
     doi.org/10.1002/wcms.81
  2. Neese, F.
     Software update: the ORCA program system, version 4.0
     WIRES Comput. Molec. Sci. 2018 8(1), 1-6
     doi.org/10.1002/wcms.1327
  3. Neese, F.; Wennmohs, F.; Becker, U.; Riplinger, C.
     The ORCA quantum chemistry program package
     J. Chem. Phys. 2020 152(22), 224108
     doi.org/10.1063/5.0004608
  4. Neese, F.
     Software update: The ORCA program system—Version 5.0
     WIRES Comput. Molec. Sci. 2022 12(1), e1606
     doi.org/10.1002/wcms.1606

List of optional additional citations

  1. Neese, F.
     Approximate second-order SCF convergence for spin unrestricted wavefunctions
     Chem. Phys. Lett. 2000 325(1-3), 93-98
     doi.org/10.1016/s0009-2614(00)00662-x

Timings for individual modules:

Sum of individual times          ...      157.150 sec (=   2.619 min)
Startup calculation              ...        2.477 sec (=   0.041 min)   1.6 %
SCF iterations                   ...       36.611 sec (=   0.610 min)  23.3 %
Property calculations            ...        0.036 sec (=   0.001 min)   0.0 %
MP2 module                       ...      118.017 sec (=   1.967 min)  75.1 %
Geometry relaxation              ...        0.009 sec (=   0.000 min)   0.0 %
                             ****ORCA TERMINATED NORMALLY****
TOTAL RUN TIME: 0 days 0 hours 2 minutes 37 seconds 351 msec
