
                                 *****************
                                 * O   R   C   A *
                                 *****************

                                            #,                                       
                                            ###                                      
                                            ####                                     
                                            #####                                    
                                            ######                                   
                                           ########,                                 
                                     ,,################,,,,,                         
                               ,,#################################,,                 
                          ,,##########################################,,             
                       ,#########################################, ''#####,          
                    ,#############################################,,   '####,        
                  ,##################################################,,,,####,       
                ,###########''''           ''''###############################       
              ,#####''   ,,,,##########,,,,          '''####'''          '####       
            ,##' ,,,,###########################,,,                        '##       
           ' ,,###''''                  '''############,,,                           
         ,,##''                                '''############,,,,        ,,,,,,###''
      ,#''                                            '''#######################'''  
     '                                                          ''''####''''         
             ,#######,   #######,   ,#######,      ##                                
            ,#'     '#,  ##    ##  ,#'     '#,    #''#        ,####,    ,#,          
            ##       ##  ##   ,#'  ##            #'  '#       #'       ,# #          
            ##       ##  #######   ##           ,######,      #####,      #          
            '#,     ,#'  ##    ##  '#,     ,#' ,#      #,     #,   #      #          
             '#######'   ##     ##  '#######'  #'      '#     '####' #    #          



                #########################################################
                #                        -***-                          #
                #          Department of theory and spectroscopy        #
                #                                                       #
                #                      Frank Neese                      #
                #                                                       #
                #     Directorship, Architecture, Infrastructure        #
                #                    SHARK, DRIVERS                     #
                #        Core code/Algorithms in most modules           #
                #                                                       #
                #        Max Planck Institute fuer Kohlenforschung      #
                #                Kaiser Wilhelm Platz 1                 #
                #                 D-45470 Muelheim/Ruhr                 #
                #                      Germany                          #
                #                                                       #
                #                  All rights reserved                  #
                #                        -***-                          #
                #########################################################


                         Program Version 6.1.0  -  RELEASE   -
                                (GIT: $679e74b$)
                          ($2025-06-10 18:02:51 +0200$)


 With contributions from (in alphabetic order):
[Max-Planck-Institut fuer Kohlenforschung]                               
  Daniel Aravena         : Magnetic Suceptibility                        
  Michael Atanasov       : Ab Initio Ligand Field Theory (pilot matlab implementation)
  Alexander A. Auer      : GIAO ZORA, VPT2 properties, NMR spectrum      
  Ute Becker             : All parallelization in ORCA, NUMFREQ, NUMCALC 
  Giovanni Bistoni       : ED, misc. LED, open-shell LED, HFLD           
  Dmytro Bykov           : pre 5.0 version of the SCF Hessian            
  Marcos Casanova-Páez   : Triplet and SCS-CIS(D). UHF-(DLPNO)-IP/EA/STEOM-CCSD. UHF-CVS-IP/STEOM-CCSD   
  Vijay G. Chilkuri      : MRCI spin determinant printing, contributions to CSF-ICE 
  Pauline Colinet        : FMM embedding                                 
  Dipayan Datta          : RHF DLPNO-CCSD density                        
  Achintya Kumar Dutta   : EOM-CC, STEOM-CC                              
  Nicolas Foglia         : Exact transition moments, OPA infrastructure, MCD improvements    
  Dmitry Ganyushin       : Spin-Orbit,Spin-Spin,Magnetic field MRCI      
  Miquel Garcia-Rates    : C-PCM and meta-GGA Hessian, CCSD/C-PCM, Gaussian charge scheme 
  Tiago L. C. Gouveia    : GS-ROHF, GS-ROCIS                             
  Yang Guo               : DLPNO-NEVPT2, F12-NEVPT2, CIM, IAO-localization        
  Andreas Hansen         : Spin unrestricted coupled pair/coupled cluster methods 
  Ingolf Harden          : AUTO-CI MPn and infrastructure                
  Benjamin Helmich-Paris : MC-RPA, TRAH-(SCF,CASSCF), AVAS, COSX integrals, SCF dyn. polar., MC-PDFT, srDFT 
  Lee Huntington         : MR-EOM, pCC                                   
  Robert Izsak           : Overlap fitted RIJCOSX, COSX-SCS-MP3, EOM     
  Riya Kayal             : Wick's Theorem for AUTO-CI, AUTO-CI UHF-CCSDT 
  Emily Kempfer          : AUTO-CI RHF CISDT and CCSDT, approximate NEVPT4
  Christian Kollmar      : KDIIS, OOCD, Brueckner-CCSD(T), CCSD density, CASPT2, CASPT2-K, improved NEVPT2 
  Axel Koslowski         : Symmetry handling                             
  Simone Kossmann        : meta-GGA functionals, TD-DFT gradient, OOMP2, (MP2 Hessian; deprecated post 5.0) 
  Lucas Lang             : DCDCAS, Hyperfine gauge corrections, ICE-SOC+SSC
  Marvin Lechner         : AUTO-CI (C++ implementation), FIC-MRCC        
  Spencer Leger          : CASSCF response                               
  Dagmar Lenk            : GEPOL surface, SMD, ORCA-2-JSON               
  Dimitrios Liakos       : Extrapolation schemes; Compound Job, Property file
  Dimitrios Manganas     : Further ROCIS development; embedding schemes. LFT, Crystal Embedding 
  Dimitrios Pantazis     : SARC Basis sets                               
  Anastasios Papadopoulos: AUTO-CI, single reference methods and gradients 
  Taras Petrenko         : pre 6.0 DFT Hessian and TD-DFT gradient,  ECA, NRVS 
  Petra Pikulova         : Analytic Raman intensities                    
  Peter Pinski           : DLPNO-MP2, DLPNO-MP2 Gradient                 
  Shashank Vittal Rao    : ES-AILFT, MagRelax                            
  Christoph Reimann      : Effective Core Potentials                     
  Marius Retegan         : Local ZFS, SOC                                
  Christoph Riplinger    : Optimizer, TS searches, QM/MM, DLPNO-CCSD(T), (RO)-DLPNO pert. Triples 
  Michael Roemelt        : Original ROCIS implementation, recursive CI coupling coefficients
  Masaaki Saitow         : Open-shell DLPNO-CCSD energy and density      
  Barbara Sandhoefer     : DKH picture change effects                    
  Yorick L. A. Schmerwitz: GMF and freeze-and-release deltaSCF, NEB S-IDPP initial path                    
  Kantharuban Sivalingam : CASSCF convergence/infrastructure, NEVPT2, NEVPT3, NEVPT4(SD), FIC-MRCI and CEPA variants
  Bernardo de Souza      : ESD, SOC TD-DFT                               
  Georgi L. Stoychev     : AutoAux, RI-MP2 NMR, DLPNO-MP2 response, X2C  
  Van Anh Tran           : RI-MP2 g-tensors                              
  Willem Van den Heuvel  : Paramagnetic NMR                              
  Zikuan Wang            : NOTCH, Electric field optimization            
  Frank Wennmohs         : Technical directorship and infrastructure     
  Hang Xu                : AUTO-CI-Response properties                   
                                                                         
[FACCTs GmbH]                                                            
  Markus Bursch, Nicolas Foglia, Miquel Garcia-Rates, Ingolf Harden, Hagen Neugebauer, Anastasios Papadopoulos, 
  Christoph Riplinger, Bernardo de Souza, Georgi L. Stoychev                                                    
                                                                 
  APM, various basis sets, CI-OPT, improved COSX, DLPNO-Multilevel,           
  DOCKER, DRACO, updates on ESD, Fragmentator, GOAT, IRC, LR-CPCM, L-BFGS, MBIS, meta-GGA TD-DFT gradient, ML-optimized integration grids, 
  MM, NACMEs, nearIR, NEB, NEB-TS, NL-DFT gradient (VV10), 2- and 3-layer-ONIOM, interface openCOSMO-RS, QMMM,   
  Crystal-QMMM, RESP, rigid body optimization, SF, symmetry and pop. for TD-DFT, various functionals, SOLVATOR                                   
                                                                         
[Other institutions]                                                     
  V. Asgeirsson          : NEB                                           
  Christoph Bannwarth    : sTDA-DFT, sTD-DFT, PBEh-3c, B97-3c, D3        
  Giovanni Bistoni       : ETS/NOCV, ADLD/ADEX, COVALED                  
  Martin Brehm           : Molecular dynamics                            
  Ronald Cardenas        : ETS/NOCV                                      
  Martina Colucci        : COVALED                                       
  Sebastian Ehlert       : rSCAN, r2SCAN, r2SCAN-3c, D4, dhf basis sets  
  Marvin Friede          : D4 for Fr, Ra, Ac-Lr                          
  Lars Goerigk           : TD-DFT with DH, B97 family of functionals     
  Stefan Grimme          : VdW corrections, initial TS optimization, DFT functionals, gCP, sTDA/sTD-DF 
  Waldemar Hujo          : DFT-NL                                        
  H. Jonsson             : NEB                                           
  Holger Kruse           : gCP                                           
  Marcel Mueller         : wB97X-3c, vDZP basis set                      
  Hagen Neugebauer       : wr2SCAN, Native XTB                           
  Gianluca Regni         : ADLD/ADEX                                     
  Tobias Risthaus        : pre 6.0 range-separated hybrid DFT and stability analysis
  Lukas Wittmann         : regularized MP2, r2SCAN double-hybrids, wr2SCAN        
                                                                         
We gratefully acknowledge several colleagues who have allowed us to      
interface, adapt or use parts of their codes:                            
  Ed Valeev, F. Pavosevic, A. Kumar             : LibInt (2-el integral package), F12 methods 
  Garnet Chan, S. Sharma, J. Yang, R. Olivares  : DMRG                   
  Ulf Ekstrom                                   : XCFun DFT Library      
  Mihaly Kallay                                 : mrcc  (arbitrary order and MRCC methods)
  Frank Weinhold                                : gennbo (NPA and NBO analysis)           
  Simon Mueller                                 : openCOSMO-RS                            
  Christopher J. Cramer and Donald G. Truhlar   : smd solvation model                     
  S Lehtola, MJT Oliveira, MAL Marques          : LibXC Library                           
  Liviu Ungur et al                             : ANISO software                          


 Your calculation uses the libint2 library for the computation of 2-el integrals
 For citations please refer to: http://libint.valeyev.net

 Your ORCA version has been built with support for libXC version: 7.0.0
 For citations please refer to: https://libxc.gitlab.io

 This ORCA versions uses:
   CBLAS   interface :  Fast vector & matrix operations
   LAPACKE interface :  Fast linear algebra routines
   SCALAPACK package :  Parallel linear algebra routines
   Shared memory     :  Shared parallel matrices
   BLAS/LAPACK       :  OpenBLAS 0.3.29  USE64BITINT DYNAMIC_ARCH NO_AFFINITY Haswell SINGLE_THREADED
        Core in use  :  Haswell
   Copyright (c) 2011-2014, The OpenBLAS Project


  ***********************************
  * Starting time: Mon Sep  1 08:07:39 2025
  * Host name:     chemlab03
  * Process ID:    97407
  * Working dir.:  /home/vivek/mm-project/vivek/xtb-goat/MP2-opt/f/4
  ***********************************



***************************************
The coordinates will be read from file: /home/vivek/mm-project/vivek/xtb-goat/xtb-goat/f/F_CONF/4.xyz
***************************************


================================================================================

----- Orbital basis set information -----
Your calculation utilizes the basis: 6-31G**
   H-He, Li-Ne : W. J. Hehre, R. Ditchfield and J.A. Pople, J. Chem. Phys. 56, 2257 (1972).
                 Note: He and Ne are unpublished basis sets taken from the Gaussian program.
                 Note: Li and B from J. D. Dill and J. A. Pople, J. Chem. Phys. 62, 2921 (1975).
   Na - Ar     : M. M. Francl, W. J. Pietro, W. J. Hehre, J. S. Binkley, M. S. Gordon, 
                 D. J. DeFrees and J. A. Pople, J. Chem. Phys. 77, 3654 (1982).
   K - Zn      : V. A. Rassolov, J. A. Pople, M. A. Ratner, and T. L. Windus, J. Chem. Phys. 109, 1223 (1998).

================================================================================
                                        WARNINGS
                       Please study these warnings very carefully!
================================================================================


WARNING: The frozen-core approximation for MP2-gradient calculations is turned on by default.

WARNING: Geometry Optimization
  ===> : Switching off AutoStart
         For restart on a previous wavefunction, please use MOREAD

WARNING: Post HF methods need fully converged wavefunctions
  ===> : Setting SCFConvForced true
         You can overwrite this default with %scf ConvForced false 


================================================================================
                                       INPUT FILE
================================================================================
NAME = 4.inp
|  1> ! MP2 6-31G** opt
|  2> 
|  3> * xyzfile 0 1 /home/vivek/mm-project/vivek/xtb-goat/xtb-goat/f/F_CONF/4.xyz
|  4> 
|  5>                          ****END OF INPUT****
================================================================================

                       *****************************
                       * Geometry Optimization Run *
                       *****************************

Geometry optimization settings:
Update method            Update   .... BFGS
Choice of coordinates    CoordSys .... (2022) Redundant Internals
Initial Hessian          InHess   .... Almloef's Model
Max. no of cycles        MaxIter  .... 69

Convergence Tolerances:
Energy Change            TolE     ....  5.0000e-06 Eh
Max. Gradient            TolMAXG  ....  3.0000e-04 Eh/bohr
RMS Gradient             TolRMSG  ....  1.0000e-04 Eh/bohr
Max. Displacement        TolMAXD  ....  4.0000e-03 bohr
RMS Displacement         TolRMSD  ....  2.0000e-03 bohr
Strict Convergence                .... False

------------------------------------------------------------------------------
                        ORCA OPTIMIZATION COORDINATE SETUP
------------------------------------------------------------------------------

The optimization will be done in redundant internal coordinates (2022)
Making redundant internal coordinates   ...  (2022 redundants) done
Evaluating the initial hessian          ...  (Almloef) done
Evaluating the coordinates              ...  done
Calculating the B-matrix                .... done
Calculating the G-matrix                .... done
The number of degrees of freedom        ....  107

    -----------------------------------------------------------------
                    Redundant Internal Coordinates


    -----------------------------------------------------------------
         Definition                    Initial Value    Approx d2E/dq
    -----------------------------------------------------------------
      1. B(C   1,C   0)                  1.3842         0.638235   
      2. B(H   4,C   2)                  1.0808         0.372458   
      3. B(C   5,C   1)                  1.3836         0.639714   
      4. B(H   7,C   1)                  1.0803         0.373113   
      5. B(C   8,C   5)                  1.3892         0.626748   
      6. B(C   8,C   6)                  1.4999         0.417222   
      7. B(C   8,C   2)                  1.3894         0.626154   
      8. B(H   9,C   0)                  1.0800         0.373625   
      9. B(C  10,H   3)                  1.0802         0.373310   
     10. B(C  10,C   2)                  1.3830         0.641185   
     11. B(C  10,C   0)                  1.3844         0.637789   
     12. B(H  11,C   5)                  1.0811         0.372037   
     13. B(C  12,C   6)                  1.5556         0.340095   
     14. B(H  13,C   6)                  1.0927         0.356574   
     15. B(H  14,C   6)                  1.0929         0.356323   
     16. B(C  15,C  12)                  1.5176         0.391050   
     17. B(N  17,C  12)                  1.4468         0.454125   
     18. B(O  18,H  16)                  0.9711         0.499229   
     19. B(O  18,C  15)                  1.3325         0.691144   
     20. B(H  19,N  17)                  1.0154         0.424265   
     21. B(O  20,C  15)                  1.2015         1.118245   
     22. B(H  21,C  12)                  1.0950         0.353527   
     23. B(H  22,N  17)                  1.0139         0.426611   
     24. A(C   1,C   0,C  10)          119.7057         0.438568   
     25. A(C   1,C   0,H   9)          120.1408         0.356872   
     26. A(H   9,C   0,C  10)          120.1535         0.356830   
     27. A(C   0,C   1,C   5)          120.1239         0.438807   
     28. A(C   0,C   1,H   7)          120.0792         0.356789   
     29. A(C   5,C   1,H   7)          119.7969         0.356929   
     30. A(C   8,C   2,C  10)          120.6080         0.437478   
     31. A(H   4,C   2,C   8)          119.5173         0.355527   
     32. A(H   4,C   2,C  10)          119.8744         0.356962   
     33. A(C   1,C   5,C   8)          120.5732         0.437372   
     34. A(C   8,C   5,H  11)          119.5448         0.355516   
     35. A(C   1,C   5,H  11)          119.8819         0.356754   
     36. A(C  12,C   6,H  14)          107.9743         0.318822   
     37. A(H  13,C   6,H  14)          108.8345         0.289910   
     38. A(C   8,C   6,H  14)          110.3831         0.329703   
     39. A(C  12,C   6,H  13)          108.2052         0.318858   
     40. A(C   8,C   6,H  13)          110.3939         0.329742   
     41. A(C   8,C   6,C  12)          110.9706         0.364385   
     42. A(C   5,C   8,C   6)          120.7051         0.405250   
     43. A(C   2,C   8,C   6)          120.3721         0.405182   
     44. A(C   2,C   8,C   5)          118.8807         0.435687   
     45. A(C   0,C  10,H   3)          120.0389         0.356779   
     46. A(C   0,C  10,C   2)          120.1082         0.438934   
     47. A(C   2,C  10,H   3)          119.8529         0.357101   
     48. A(C  15,C  12,N  17)          108.5908         0.376346   
     49. A(C   6,C  12,N  17)          114.1550         0.367408   
     50. A(C   6,C  12,C  15)          106.8240         0.360376   
     51. A(N  17,C  12,H  21)          109.1609         0.331913   
     52. A(C  15,C  12,H  21)          108.7570         0.325777   
     53. A(C   6,C  12,H  21)          109.2159         0.318412   
     54. A(C  12,C  15,O  20)          124.4757         0.441359   
     55. A(C  12,C  15,O  18)          112.3290         0.405001   
     56. A(O  18,C  15,O  20)          123.1697         0.486538   
     57. A(C  12,N  17,H  19)          109.6506         0.339201   
     58. A(H  19,N  17,H  22)          108.5654         0.301620   
     59. A(C  12,N  17,H  22)          110.8360         0.339513   
     60. A(C  15,O  18,H  16)          110.6936         0.374473   
     61. D(C   5,C   1,C   0,C  10)      0.0729         0.028291   
     62. D(C   5,C   1,C   0,H   9)   -179.9966         0.028291   
     63. D(H   7,C   1,C   0,H   9)      0.0119         0.028291   
     64. D(H   7,C   1,C   0,C  10)   -179.9186         0.028291   
     65. D(H  11,C   5,C   1,H   7)     -0.1981         0.028431   
     66. D(H  11,C   5,C   1,C   0)    179.8104         0.028431   
     67. D(C   8,C   5,C   1,C   0)     -0.0964         0.028431   
     68. D(C   8,C   5,C   1,H   7)    179.8952         0.028431   
     69. D(C   6,C   8,C   5,C   1)    177.7680         0.027218   
     70. D(C   6,C   8,C   2,C  10)   -177.7770         0.027163   
     71. D(C   2,C   8,C   5,C   1)      0.1184         0.027218   
     72. D(C   2,C   8,C   5,H  11)   -179.7887         0.027218   
     73. D(C   5,C   8,C   6,C  12)    -97.4928         0.012877   
     74. D(C   5,C   8,C   2,C  10)     -0.1192         0.027163   
     75. D(C   5,C   8,C   2,H   4)   -179.9253         0.027163   
     76. D(C   2,C   8,C   6,H  13)   -159.9147         0.012877   
     77. D(C   2,C   8,C   6,C  12)     80.1218         0.012877   
     78. D(C   2,C   8,C   6,H  14)    -39.5456         0.012877   
     79. D(C   6,C   8,C   5,H  11)     -2.1390         0.027218   
     80. D(C   6,C   8,C   2,H   4)      2.4169         0.027163   
     81. D(C   5,C   8,C   6,H  13)     22.4707         0.012877   
     82. D(H   3,C  10,C   2,C   8)   -179.9124         0.028571   
     83. D(H   3,C  10,C   2,H   4)     -0.1070         0.028571   
     84. D(C   0,C  10,C   2,C   8)      0.0980         0.028571   
     85. D(C   0,C  10,C   2,H   4)    179.9035         0.028571   
     86. D(H   3,C  10,C   0,H   9)      0.0062         0.028249   
     87. D(H   3,C  10,C   0,C   1)    179.9368         0.028249   
     88. D(C   2,C  10,C   0,H   9)    179.9958         0.028249   
     89. D(C   2,C  10,C   0,C   1)     -0.0737         0.028249   
     90. D(C  15,C  12,C   6,H  13)    -62.7976         0.010000   
     91. D(C  15,C  12,C   6,C   8)     58.4615         0.010000   
     92. D(N  17,C  12,C   6,H  14)    -60.4002         0.010000   
     93. D(N  17,C  12,C   6,H  13)     57.2441         0.010000   
     94. D(N  17,C  12,C   6,C   8)    178.5032         0.010000   
     95. D(C  15,C  12,C   6,H  14)    179.5581         0.010000   
     96. D(O  20,C  15,C  12,N  17)    -44.6715         0.011374   
     97. D(O  20,C  15,C  12,C   6)     78.8841         0.011374   
     98. D(O  18,C  15,C  12,H  21)     18.4430         0.011374   
     99. D(O  18,C  15,C  12,N  17)    137.1244         0.011374   
    100. D(O  18,C  15,C  12,C   6)    -99.3200         0.011374   
    101. D(H  22,N  17,C  12,C  15)    165.3012         0.017597   
    102. D(H  22,N  17,C  12,C   6)     46.2548         0.017597   
    103. D(H  19,N  17,C  12,H  21)    163.8843         0.017597   
    104. D(H  19,N  17,C  12,C  15)     45.4578         0.017597   
    105. D(H  19,N  17,C  12,C   6)    -73.5886         0.017597   
    106. D(H  16,O  18,C  15,O  20)     -0.7162         0.035686   
    107. D(H  16,O  18,C  15,C  12)    177.5152         0.035686   
    -----------------------------------------------------------------

Number of atoms                         .... 23
Number of degrees of freedom            .... 107


         *************************************************************
         *                GEOMETRY OPTIMIZATION CYCLE   1            *
         *************************************************************
---------------------------------
CARTESIAN COORDINATES (ANGSTROEM)
---------------------------------
  C     -6.258671    0.087167   -0.437842
  C     -5.233347    0.133866   -1.366584
  C     -5.235072    1.888827    0.768887
  H     -7.055393    0.936809    1.357676
  H     -5.238667    2.575652    1.603404
  C     -4.211208    1.055793   -1.226704
  C     -3.069947    2.910876    0.023722
  H     -5.229021   -0.549670   -2.203177
  C     -4.201842    1.943713   -0.158410
  H     -7.056617   -0.632378   -0.546731
  C     -6.257399    0.967849    0.630312
  H     -3.410719    1.086794   -1.952709
  C     -2.032670    2.367474    1.047701
  H     -2.556302    3.079091   -0.925919
  H     -3.443215    3.867691    0.397273
  C     -1.540637    1.036349    0.510128
  H     -1.844301   -0.835716    0.700619
  N     -0.891368    3.233318    1.250479
  O     -2.147971    0.001004    1.088779
  H     -0.278656    3.185540    0.442231
  O     -0.722486    0.915366   -0.361486
  H     -2.529787    2.197169    2.008393
  H     -1.186204    4.195257    1.375628

----------------------------
CARTESIAN COORDINATES (A.U.)
----------------------------
  NO LB      ZA    FRAG     MASS         X           Y           Z
   0 C     6.0000    0    12.011  -11.827173    0.164722   -0.827402
   1 C     6.0000    0    12.011   -9.889593    0.252970   -2.582469
   2 C     6.0000    0    12.011   -9.892853    3.569365    1.452986
   3 H     1.0000    0     1.008  -13.332761    1.770312    2.565636
   4 H     1.0000    0     1.008   -9.899647    4.867277    3.029995
   5 C     6.0000    0    12.011   -7.958029    1.995160   -2.318135
   6 C     6.0000    0    12.011   -5.801359    5.500758    0.044828
   7 H     1.0000    0     1.008   -9.881418   -1.038725   -4.163402
   8 C     6.0000    0    12.011   -7.940330    3.673085   -0.299352
   9 H     1.0000    0     1.008  -13.335073   -1.195021   -1.033171
  10 C     6.0000    0    12.011  -11.824771    1.828970    1.191117
  11 H     1.0000    0     1.008   -6.445325    2.053742   -3.690086
  12 C     6.0000    0    12.011   -3.841190    4.473877    1.979869
  13 H     1.0000    0     1.008   -4.830711    5.818639   -1.749734
  14 H     1.0000    0     1.008   -6.506734    7.308877    0.750737
  15 C     6.0000    0    12.011   -2.911382    1.958416    0.964002
  16 H     1.0000    0     1.008   -3.485224   -1.579274    1.323977
  17 N     7.0000    0    14.007   -1.684442    6.110085    2.363064
  18 O     8.0000    0    15.999   -4.059078    0.001897    2.057493
  19 H     1.0000    0     1.008   -0.526584    6.019798    0.835695
  20 O     8.0000    0    15.999   -1.365300    1.729791   -0.683110
  21 H     1.0000    0     1.008   -4.780605    4.152048    3.795312
  22 H     1.0000    0     1.008   -2.241600    7.927888    2.599561

--------------------------------
INTERNAL COORDINATES (ANGSTROEM)
--------------------------------
 C      0   0   0     0.000000000000     0.00000000     0.00000000
 C      1   0   0     1.384207171272     0.00000000     0.00000000
 C      1   2   0     2.397900507835    89.77706079     0.00000000
 H      3   1   2     2.136955534866    55.96545680   179.94152149
 H      3   1   2     1.080815171758   149.83747364   179.76937415
 C      2   1   3     1.383577220536   120.12394315     0.03612348
 C      3   1   2     2.507513082505   121.68714915   358.64264853
 H      2   1   3     1.080336907698   120.07919588   180.04459045
 C      6   2   1     1.389150964990   120.57322808   359.90361026
 H      1   2   3     1.079963037368   120.14080761   179.96732355
 C      4   3   1     1.080192676673    34.14475330     0.00000000
 H      6   2   1     1.081122837215   119.88194494   179.81038156
 C      7   3   1     1.555558632522   103.75458523   253.94693969
 H      7   3   1     1.092678242055   136.62811454    30.62218180
 H      7   3   1     1.092869920824    87.72843065   145.99372535
 C     13   7   3     1.517555506764   106.82395587    87.46557458
 H     16  13   7     1.906075928942   140.75460062   262.55169283
 N     13   7   3     1.446849933183   114.15501078   207.50727527
 O     17  16  13     0.971073616565    40.84323197   356.36549887
 H     18  13   7     1.015364180725   109.65056376   286.41144663
 O     16  13   7     1.201549086475   124.47568749    78.88411456
 H     13   7   3     1.095014485002   109.21589060   330.00444133
 H     18  13   7     1.013863007301   110.83601403    46.25483089

---------------------------
INTERNAL COORDINATES (A.U.)
---------------------------
 C      0   0   0     0.000000000000     0.00000000     0.00000000
 C      1   0   0     2.615772466314     0.00000000     0.00000000
 C      1   2   0     4.531375256199    89.77706079     0.00000000
 H      3   1   2     4.038260721264    55.96545680   179.94152149
 H      3   1   2     2.042444676010   149.83747364   179.76937415
 C      2   1   3     2.614582031946   120.12394315     0.03612348
 C      3   1   2     4.738513003159   121.68714915   358.64264853
 H      2   1   3     2.041540887916   120.07919588   180.04459045
 C      6   2   1     2.625114882504   120.57322808   359.90361026
 H      1   2   3     2.040834375384   120.14080761   179.96732355
 C      4   3   1     2.041268330779    34.14475330     0.00000000
 H      6   2   1     2.043026079464   119.88194494   179.81038156
 C      7   3   1     2.939579800723   103.75458523   253.94693969
 H      7   3   1     2.064862629979   136.62811454    30.62218180
 H      7   3   1     2.065224850358    87.72843065   145.99372535
 C     13   7   3     2.867764300808   106.82395587    87.46557458
 H     16  13   7     3.601961496159   140.75460062   262.55169283
 N     13   7   3     2.734150130598   114.15501078   207.50727527
 O     17  16  13     1.835063191185    40.84323197   356.36549887
 H     18  13   7     1.918760227763   109.65056376   286.41144663
 O     16  13   7     2.270598709901   124.47568749    78.88411456
 H     13   7   3     2.069277489330   109.21589060   330.00444133
 H     18  13   7     1.915923421113   110.83601403    46.25483089

---------------------
BASIS SET INFORMATION
---------------------
There are 4 groups of distinct atoms

 Group   1 Type C   : 10s4p1d contracted to 3s2p1d pattern {631/31/1}
 Group   2 Type H   : 4s1p contracted to 2s1p pattern {31/1}
 Group   3 Type N   : 10s4p1d contracted to 3s2p1d pattern {631/31/1}
 Group   4 Type O   : 10s4p1d contracted to 3s2p1d pattern {631/31/1}

Atom   0C    basis set group =>   1
Atom   1C    basis set group =>   1
Atom   2C    basis set group =>   1
Atom   3H    basis set group =>   2
Atom   4H    basis set group =>   2
Atom   5C    basis set group =>   1
Atom   6C    basis set group =>   1
Atom   7H    basis set group =>   2
Atom   8C    basis set group =>   1
Atom   9H    basis set group =>   2
Atom  10C    basis set group =>   1
Atom  11H    basis set group =>   2
Atom  12C    basis set group =>   1
Atom  13H    basis set group =>   2
Atom  14H    basis set group =>   2
Atom  15C    basis set group =>   1
Atom  16H    basis set group =>   2
Atom  17N    basis set group =>   3
Atom  18O    basis set group =>   4
Atom  19H    basis set group =>   2
Atom  20O    basis set group =>   4
Atom  21H    basis set group =>   2
Atom  22H    basis set group =>   2
------------------------------------------------------------------------------
                             ORCA STARTUP CALCULATIONS
------------------------------------------------------------------------------
------------------------------------------------------------------------------
                   ___                                                        
                  /   \      - P O W E R E D   B Y -                         
                 /     \                                                     
                 |  |  |   _    _      __       _____    __    __             
                 |  |  |  | |  | |    /  \     |  _  \  |  |  /  |          
                  \  \/   | |  | |   /    \    | | | |  |  | /  /          
                 / \  \   | |__| |  /  /\  \   | |_| |  |  |/  /          
                |  |  |   |  __  | /  /__\  \  |    /   |      \           
                |  |  |   | |  | | |   __   |  |    \   |  |\   \          
                \     /   | |  | | |  |  |  |  | |\  \  |  | \   \       
                 \___/    |_|  |_| |__|  |__|  |_| \__\ |__|  \__/        
                                                                              
                      - O R C A' S   B I G   F R I E N D -                    
                                      &                                       
                       - I N T E G R A L  F E E D E R -                       
                                                                              
 v1 FN, 2020, v2 2021, v3 2022-2024                                           
------------------------------------------------------------------------------


----------------------
SHARK INTEGRAL PACKAGE
----------------------

Number of atoms                             ...     23
Number of basis functions                   ...    223
Number of shells                            ...    105
Maximum angular momentum                    ...      2
Integral batch strategy                     ... SHARK/LIBINT Hybrid
RI-J (if used) integral strategy            ... SPLIT-RIJ (Revised 2003 algorithm where possible)
Printlevel                                  ...      1
Contraction scheme used                     ... SEGMENTED contraction
Prescreening option                         ... SCHWARTZ
   Thresh                                   ... 2.500e-11
   Tcut                                     ... 2.500e-12
   Tpresel                                  ... 2.500e-12 
Coulomb Range Separation                    ... NOT USED
Exchange Range Separation                   ... NOT USED
Multipole approximations                    ... NOT USED
Finite Nucleus Model                        ... NOT USED
CABS basis                                  ... NOT available
Auxiliary Coulomb fitting basis             ... NOT available
Auxiliary J/K fitting basis                 ... NOT available
Auxiliary Correlation fitting basis         ... NOT available
Auxiliary 'external' fitting basis          ... NOT available

Checking pre-screening integrals            ... done (  0.0 sec) Dimension = 105
   => SHARK Basis and OBASIS are compatible. Storing Pre-screening
Shell pair information
Shell pair cut-off parameter TPreSel        ...   2.5e-12
Total number of shell pairs                 ...      5565
Shell pairs after pre-screening             ...      4837
Total number of primitive shell pairs       ...     28015
Primitive shell pairs kept                  ...     15411
          la=0 lb=0:   1478 shell pairs
          la=1 lb=0:   1760 shell pairs
          la=1 lb=1:    555 shell pairs
          la=2 lb=0:    603 shell pairs
          la=2 lb=1:    370 shell pairs
          la=2 lb=2:     71 shell pairs

Checking whether 4 symmetric matrices of dimension 223 fit in memory
:Max Core in MB      =   4096.00
 MB in use           =      7.74
 MB left             =   4088.26
 MB needed           =      0.76
 Data fit in memory  = YES
Calculating Nuclear repulsion               ... done (  0.0 sec) ENN=    695.774170936648 Eh

Diagonalization of the overlap matrix:
Smallest eigenvalue                        ... 4.374e-04
Time for diagonalization                   ...    0.003 sec
Threshold for overlap eigenvalues          ... 1.000e-07
Number of eigenvalues below threshold      ... 0
Time for construction of square roots      ...    0.001 sec
Total time needed                          ...    0.004 sec

-------------------
DFT GRID GENERATION
-------------------

General Integration Accuracy     IntAcc      ... 4.388
Radial Grid Type                 RadialGrid  ... OptM3 with GC (2021)
Angular Grid (max. ang.)         AngularGrid ... 4 (Lebedev-302)
Angular grid pruning method      GridPruning ... 4 (adaptive)
Weight generation scheme         WeightScheme... mBecke (2022)
Basis function cutoff            BFCut       ... 1.0000e-11
Integration weight cutoff        WCut        ... 1.0000e-14
Partially contracted basis set               ... off
Rotationally invariant grid construction     ... off
Angular grids for H and He will be reduced by one unit

Total number of grid points                  ...   107287
Total number of batches                      ...     1690
Average number of points per batch           ...       63
Average number of grid points per atom       ...     4665
Grids setup in   0.5 sec
Initializing property integral containers    ... done (  0.0 sec)

SHARK setup successfully completed in   0.6 seconds

Maximum memory used throughout the entire STARTUP-calculation: 43.6 MB
-------------------------------------------------------------------------------
                                 ORCA GUESS
                   Start orbitals & Density for SCF / CASSCF
-------------------------------------------------------------------------------

------------
SCF SETTINGS
------------
Hamiltonian:
 Ab initio Hamiltonian  Method          .... Hartree-Fock(GTOs)


General Settings:
 Integral files         IntName         .... 4
 Hartree-Fock type      HFTyp           .... RHF
 Total Charge           Charge          ....    0
 Multiplicity           Mult            ....    1
 Number of Electrons    NEL             ....   88
 Basis Dimension        Dim             ....  223
 Nuclear Repulsion      ENuc            ....    695.7741709366 Eh

Convergence Acceleration:
 AO-DIIS                CNVDIIS         .... on
   Start iteration      DIISMaxIt       ....    12
   Startup error        DIISStart       ....  0.200000
   # of expansion vecs  DIISMaxEq       ....     5
   Bias factor          DIISBfac        ....   1.050
   Max. coefficient     DIISMaxC        ....  10.000
 MO-DIIS                CNVKDIIS        .... off
 Trust-Rad. Augm. Hess. CNVTRAH         .... auto
   Auto Start mean grad. ratio tolernc. ....  1.125000
   Auto Start start iteration           ....    50
   Auto Start num. interpolation iter.  ....    10
   Max. Number of Micro iterations      ....    24
   Max. Number of Macro iterations      .... Maxiter - #DIIS iter
   Number of Davidson start vectors     ....     2
   Converg. threshold    (grad. norm)   ....   1.000e-05
   Grad. Scal. Fac. for Micro threshold ....   0.100
   Minimum threshold for Micro iter.    ....   1.000e-02
   NR start threshold (gradient norm)   ....   1.000e-04
   Initial trust radius                 ....   0.400
   Minimum AH scaling param. (alpha)    ....   1.000
   Maximum AH scaling param. (alpha)    .... 1000.000
   Quad. conv. algorithm                .... NR
   White noise on init. David. guess    .... on
   Maximum white noise                  ....   0.010
   Pseudo random numbers                .... off
   Inactive MOs                         .... canonical
   Orbital update algorithm             .... Taylor
   Preconditioner                       .... Diag
   Full preconditioner red. dimension   ....   250
 SOSCF                 CNVSOSCF           .... on
   Start iteration     SOSCFMaxIt         ....   150
   Startup grad/error  SOSCFStart         ....  0.003300
   Hessian update      SOSCFHessUp        .... L-BFGS
   Autom. constraints  SOSCFAutoConstrain .... off
 Level Shifting         CNVShift        .... on
   Level shift para.    LevelShift      ....    0.2500
   Turn off err/grad.   ShiftErr        ....    0.0010
 Zerner damping         CNVZerner       .... off
 Static damping         CNVDamp         .... on
   Fraction old density DampFac         ....    0.7000
   Max. Damping (<1)    DampMax         ....    0.9800
   Min. Damping (>=0)   DampMin         ....    0.0000
   Turn off err/grad.   DampErr         ....    0.1000

SCF Procedure:
 Maximum # iterations   MaxIter         ....   125
 SCF integral mode      SCFMode         .... Direct
   Integral package                     .... SHARK and LIBINT hybrid scheme
 Reset frequency        DirectResetFreq ....    20
 Integral Threshold     Thresh          ....  2.500e-11 Eh
 Primitive CutOff       TCut            ....  2.500e-12 Eh

Convergence Tolerance:
 Convergence Check Mode ConvCheckMode   .... Total+1el-Energy
 Convergence forced     ConvForced      .... 1
 Energy Change          TolE            ....  1.000e-08 Eh
 1-El. energy change                    ....  1.000e-05 Eh
 Orbital Gradient       TolG            ....  1.000e-05
 Orbital Rotation angle TolX            ....  1.000e-05
 DIIS Error             TolErr          ....  5.000e-07

------------------------------
INITIAL GUESS: MODEL POTENTIAL
------------------------------
Loading Hartree-Fock densities                     ... done
Calculating cut-offs                               ... done
Initializing the effective Hamiltonian             ... done
Setting up the integral package (SHARK)            ... done
Starting the Coulomb interaction                   ... done (   0.1 sec)
Making the grid                                    ... done (   0.1 sec)
Mapping shells                                     ... done
Starting the XC term evaluation                    ... done (   0.1 sec)
Transforming the Hamiltonian                       ... done (   0.0 sec)
Diagonalizing the Hamiltonian                      ... done (   0.0 sec)
Back transforming the eigenvectors                 ... done (   0.0 sec)
Now organizing SCF variables                       ... done
                      ------------------
                      INITIAL GUESS DONE (   0.3 sec)
                      ------------------
             **** ENERGY FILE WAS UPDATED (4.en.tmp) ****
Finished Guess after   0.3 sec
Maximum memory used throughout the entire GUESS-calculation: 14.3 MB

-------------------------------------------------------------------------------------------
                                      ORCA LEAN-SCF
                              memory conserving SCF solver
-------------------------------------------------------------------------------------------

----------------------------------------D-I-I-S--------------------------------------------
Iteration    Energy (Eh)           Delta-E    RMSDP     MaxDP     DIISErr   Damp  Time(sec)
-------------------------------------------------------------------------------------------
               ***  Starting incremental Fock matrix formation  ***
    1    -550.9562311138670339     0.00e+00  2.47e-03  6.49e-02  2.48e-01  0.700   3.3
    2    -551.1224372693827718    -1.66e-01  1.89e-03  4.67e-02  1.53e-01  0.700   3.2
                               ***Turning on AO-DIIS***
    3    -551.2231476767158256    -1.01e-01  1.18e-03  2.03e-02  8.68e-02  0.700   3.1
    4    -551.2874420287137127    -6.43e-02  2.82e-03  4.28e-02  6.01e-02  0.000   3.1
    5    -551.4309746613100742    -1.44e-01  2.83e-04  5.41e-03  5.88e-03  0.000   3.2
    6    -551.4314686003203860    -4.94e-04  1.25e-04  3.70e-03  3.63e-03  0.000   2.9
                              *** Initializing SOSCF ***
---------------------------------------S-O-S-C-F--------------------------------------
Iteration    Energy (Eh)           Delta-E    RMSDP     MaxDP     MaxGrad    Time(sec)
--------------------------------------------------------------------------------------
    7    -551.4315738224370307    -1.05e-04  6.34e-05  1.64e-03  1.95e-03     2.8
               *** Restarting incremental Fock matrix formation ***
    8    -551.4316046236128841    -3.08e-05  3.11e-05  9.65e-04  7.24e-04     3.4
    9    -551.4316121502422448    -7.53e-06  3.19e-05  9.25e-04  4.55e-04     2.5
   10    -551.4316148776665614    -2.73e-06  5.84e-06  2.70e-04  1.05e-04     2.5
   11    -551.4316150501729226    -1.73e-07  2.25e-06  9.18e-05  4.92e-05     2.3
   12    -551.4316150952136013    -4.50e-08  7.04e-07  2.48e-05  1.21e-05     2.1
   13    -551.4316150998556623    -4.64e-09  3.58e-07  1.31e-05  2.63e-06     1.9
                 **** Energy Check signals convergence ****

               *****************************************************
               *                     SUCCESS                       *
               *           SCF CONVERGED AFTER  13 CYCLES          *
               *****************************************************

             **** ENERGY FILE WAS UPDATED (4.en.tmp) ****

----------------
TOTAL SCF ENERGY
----------------

Total Energy       :       -551.43161509973993 Eh          -15005.21710 eV

Components:
Nuclear Repulsion  :        695.77417093664803 Eh           18932.97773 eV
Electronic Energy  :      -1247.20578603638796 Eh          -33938.19482 eV
One Electron Energy:      -2132.21561757899053 Eh          -58020.53666 eV
Two Electron Energy:        885.00983154260257 Eh           24082.34184 eV

Virial components:
Potential Energy   :      -1102.45761973409685 Eh          -29999.39697 eV
Kinetic Energy     :        551.02600463435692 Eh           14994.17988 eV
Virial Ratio       :          2.00073610040537

---------------
SCF CONVERGENCE
---------------

  Last Energy change         ...    4.6421e-09  Tolerance :   1.0000e-08
  Last MAX-Density change    ...    1.3131e-05  Tolerance :   1.0000e-07
  Last RMS-Density change    ...    3.5793e-07  Tolerance :   5.0000e-09
  Last DIIS Error            ...    1.9527e-03  Tolerance :   5.0000e-07
  Last Orbital Gradient      ...    2.6292e-06  Tolerance :   1.0000e-05
  Last Orbital Rotation      ...    9.0168e-06  Tolerance :   1.0000e-05


----------------
ORBITAL ENERGIES
----------------

  NO   OCC          E(Eh)            E(eV) 
   0   2.0000     -20.613289      -560.9161 
   1   2.0000     -20.552752      -559.2688 
   2   2.0000     -15.548166      -423.0871 
   3   2.0000     -11.384297      -309.7825 
   4   2.0000     -11.274693      -306.8000 
   5   2.0000     -11.238903      -305.8261 
   6   2.0000     -11.237900      -305.7988 
   7   2.0000     -11.232532      -305.6527 
   8   2.0000     -11.232049      -305.6396 
   9   2.0000     -11.229950      -305.5825 
  10   2.0000     -11.229341      -305.5659 
  11   2.0000     -11.228611      -305.5460 
  12   2.0000      -1.467407       -39.9302 
  13   2.0000      -1.361863       -37.0582 
  14   2.0000      -1.200286       -32.6614 
  15   2.0000      -1.158478       -31.5238 
  16   2.0000      -1.062290       -28.9064 
  17   2.0000      -1.016128       -27.6503 
  18   2.0000      -0.982168       -26.7261 
  19   2.0000      -0.911402       -24.8005 
  20   2.0000      -0.830126       -22.5889 
  21   2.0000      -0.813704       -22.1420 
  22   2.0000      -0.784752       -21.3542 
  23   2.0000      -0.722641       -19.6641 
  24   2.0000      -0.699791       -19.0423 
  25   2.0000      -0.693294       -18.8655 
  26   2.0000      -0.652487       -17.7551 
  27   2.0000      -0.639190       -17.3932 
  28   2.0000      -0.633142       -17.2287 
  29   2.0000      -0.621828       -16.9208 
  30   2.0000      -0.594023       -16.1642 
  31   2.0000      -0.585865       -15.9422 
  32   2.0000      -0.576821       -15.6961 
  33   2.0000      -0.565998       -15.4016 
  34   2.0000      -0.543863       -14.7993 
  35   2.0000      -0.526597       -14.3294 
  36   2.0000      -0.500206       -13.6113 
  37   2.0000      -0.489994       -13.3334 
  38   2.0000      -0.486599       -13.2410 
  39   2.0000      -0.473614       -12.8877 
  40   2.0000      -0.444910       -12.1066 
  41   2.0000      -0.395902       -10.7730 
  42   2.0000      -0.335808        -9.1378 
  43   2.0000      -0.324319        -8.8252 
  44   0.0000       0.139579         3.7981 
  45   0.0000       0.142830         3.8866 
  46   0.0000       0.188852         5.1389 
  47   0.0000       0.225383         6.1330 
  48   0.0000       0.230330         6.2676 
  49   0.0000       0.239637         6.5209 
  50   0.0000       0.265998         7.2382 
  51   0.0000       0.282348         7.6831 
  52   0.0000       0.299851         8.1594 
  53   0.0000       0.309630         8.4255 
  54   0.0000       0.320237         8.7141 
*Only the first 10 virtual orbitals were printed.

                    ********************************
                    * MULLIKEN POPULATION ANALYSIS *
                    ********************************

-----------------------
MULLIKEN ATOMIC CHARGES
-----------------------
   0 C :   -0.154593
   1 C :   -0.144038
   2 C :   -0.144964
   3 H :    0.149971
   4 H :    0.143031
   5 C :   -0.162104
   6 C :   -0.260136
   7 H :    0.150301
   8 C :   -0.017773
   9 H :    0.148678
  10 C :   -0.140410
  11 H :    0.161424
  12 C :    0.004911
  13 H :    0.143811
  14 H :    0.131203
  15 C :    0.822470
  16 H :    0.369892
  17 N :   -0.701621
  18 O :   -0.624380
  19 H :    0.290573
  20 O :   -0.597892
  21 H :    0.162470
  22 H :    0.269177
Sum of atomic charges:    0.0000000

--------------------------------
MULLIKEN REDUCED ORBITAL CHARGES
--------------------------------
  0 C s       :     3.145612  s :     3.145612
      pz      :     0.939589  p :     2.964385
      px      :     1.013195
      py      :     1.011601
      dz2     :     0.010496  d :     0.044596
      dxz     :     0.009603
      dyz     :     0.008536
      dx2y2   :     0.006425
      dxy     :     0.009536

  1 C s       :     3.146142  s :     3.146142
      pz      :     1.016739  p :     2.952873
      px      :     0.934396
      py      :     1.001738
      dz2     :     0.008029  d :     0.045023
      dxz     :     0.009541
      dyz     :     0.009380
      dx2y2   :     0.009229
      dxy     :     0.008844

  2 C s       :     3.134267  s :     3.134267
      pz      :     1.013935  p :     2.966320
      px      :     0.936297
      py      :     1.016087
      dz2     :     0.007734  d :     0.044377
      dxz     :     0.009497
      dyz     :     0.009391
      dx2y2   :     0.009133
      dxy     :     0.008622

  3 H s       :     0.836271  s :     0.836271
      pz      :     0.005566  p :     0.013758
      px      :     0.006317
      py      :     0.001875

  4 H s       :     0.843163  s :     0.843163
      pz      :     0.006794  p :     0.013806
      px      :     0.001768
      py      :     0.005244

  5 C s       :     3.138345  s :     3.138345
      pz      :     1.005855  p :     2.979350
      px      :     1.025703
      py      :     0.947792
      dz2     :     0.008042  d :     0.044409
      dxz     :     0.010843
      dyz     :     0.008336
      dx2y2   :     0.009098
      dxy     :     0.008090

  6 C s       :     3.251733  s :     3.251733
      pz      :     1.031066  p :     2.960329
      px      :     0.929983
      py      :     0.999279
      dz2     :     0.009363  d :     0.048074
      dxz     :     0.012448
      dyz     :     0.006065
      dx2y2   :     0.007341
      dxy     :     0.012856

  7 H s       :     0.835955  s :     0.835955
      pz      :     0.006797  p :     0.013745
      px      :     0.001720
      py      :     0.005227

  8 C s       :     3.126916  s :     3.126916
      pz      :     0.939096  p :     2.839151
      px      :     0.958930
      py      :     0.941125
      dz2     :     0.010922  d :     0.051707
      dxz     :     0.011447
      dyz     :     0.009789
      dx2y2   :     0.009229
      dxy     :     0.010319

  9 H s       :     0.837538  s :     0.837538
      pz      :     0.001836  p :     0.013784
      px      :     0.006322
      py      :     0.005626

 10 C s       :     3.144738  s :     3.144738
      pz      :     0.999132  p :     2.950593
      px      :     1.010311
      py      :     0.941150
      dz2     :     0.008234  d :     0.045079
      dxz     :     0.011046
      dyz     :     0.008269
      dx2y2   :     0.009273
      dxy     :     0.008257

 11 H s       :     0.824708  s :     0.824708
      pz      :     0.005584  p :     0.013868
      px      :     0.006415
      py      :     0.001868

 12 C s       :     3.187622  s :     3.187622
      pz      :     1.016356  p :     2.736817
      px      :     0.865902
      py      :     0.854559
      dz2     :     0.012054  d :     0.070649
      dxz     :     0.019231
      dyz     :     0.008836
      dx2y2   :     0.013289
      dxy     :     0.017239

 13 H s       :     0.843736  s :     0.843736
      pz      :     0.007385  p :     0.012453
      px      :     0.003390
      py      :     0.001679

 14 H s       :     0.856215  s :     0.856215
      pz      :     0.002520  p :     0.012582
      px      :     0.002675
      py      :     0.007387

 15 C s       :     2.943222  s :     2.943222
      pz      :     0.665075  p :     2.085899
      px      :     0.655713
      py      :     0.765111
      dz2     :     0.029564  d :     0.148409
      dxz     :     0.019425
      dyz     :     0.038464
      dx2y2   :     0.025105
      dxy     :     0.035852

 16 H s       :     0.588600  s :     0.588600
      pz      :     0.010496  p :     0.041508
      px      :     0.009457
      py      :     0.021555

 17 N s       :     3.605153  s :     3.605153
      pz      :     1.587767  p :     4.062736
      px      :     1.287781
      py      :     1.187188
      dz2     :     0.008407  d :     0.033732
      dxz     :     0.007705
      dyz     :     0.001184
      dx2y2   :     0.007588
      dxy     :     0.008848

 18 O s       :     3.839549  s :     3.839549
      pz      :     1.742477  p :     4.758840
      px      :     1.749750
      py      :     1.266613
      dz2     :     0.003282  d :     0.025992
      dxz     :     0.004052
      dyz     :     0.008546
      dx2y2   :     0.002815
      dxy     :     0.007296

 19 H s       :     0.682912  s :     0.682912
      pz      :     0.012512  p :     0.026515
      px      :     0.010014
      py      :     0.003990

 20 O s       :     3.877409  s :     3.877409
      pz      :     1.422092  p :     4.687725
      px      :     1.432286
      py      :     1.833347
      dz2     :     0.011121  d :     0.032758
      dxz     :     0.008756
      dyz     :     0.003699
      dx2y2   :     0.005789
      dxy     :     0.003394

 21 H s       :     0.825538  s :     0.825538
      pz      :     0.007695  p :     0.011992
      px      :     0.002817
      py      :     0.001480

 22 H s       :     0.704515  s :     0.704515
      pz      :     0.006889  p :     0.026308
      px      :     0.004948
      py      :     0.014471



                     *******************************
                     * LOEWDIN POPULATION ANALYSIS *
                     *******************************

----------------------
LOEWDIN ATOMIC CHARGES
----------------------
   0 C :   -0.079489
   1 C :   -0.069310
   2 C :   -0.078056
   3 H :    0.075982
   4 H :    0.071786
   5 C :   -0.082384
   6 C :   -0.108538
   7 H :    0.075933
   8 C :   -0.025612
   9 H :    0.075228
  10 C :   -0.066767
  11 H :    0.078013
  12 C :   -0.015206
  13 H :    0.075073
  14 H :    0.069922
  15 C :    0.248112
  16 H :    0.201278
  17 N :   -0.281746
  18 O :   -0.193626
  19 H :    0.137593
  20 O :   -0.313393
  21 H :    0.077806
  22 H :    0.127403

-------------------------------
LOEWDIN REDUCED ORBITAL CHARGES
-------------------------------
  0 C s       :     2.886041  s :     2.886041
      pz      :     1.037920  p :     3.099658
      px      :     1.037582
      py      :     1.024156
      dz2     :     0.022710  d :     0.093790
      dxz     :     0.021381
      dyz     :     0.018457
      dx2y2   :     0.012765
      dxy     :     0.018477

  1 C s       :     2.886572  s :     2.886572
      pz      :     1.031488  p :     3.088146
      px      :     1.037981
      py      :     1.018677
      dz2     :     0.016450  d :     0.094591
      dxz     :     0.020963
      dyz     :     0.018059
      dx2y2   :     0.019739
      dxy     :     0.019380

  2 C s       :     2.883477  s :     2.883477
      pz      :     1.032476  p :     3.100493
      px      :     1.038866
      py      :     1.029152
      dz2     :     0.016238  d :     0.094085
      dxz     :     0.020845
      dyz     :     0.018202
      dx2y2   :     0.019628
      dxy     :     0.019171

  3 H s       :     0.882764  s :     0.882764
      pz      :     0.016403  p :     0.041254
      px      :     0.018434
      py      :     0.006418

  4 H s       :     0.886917  s :     0.886917
      pz      :     0.019658  p :     0.041297
      px      :     0.006249
      py      :     0.015390

  5 C s       :     2.885140  s :     2.885140
      pz      :     1.035518  p :     3.103229
      px      :     1.042152
      py      :     1.025560
      dz2     :     0.016838  d :     0.094014
      dxz     :     0.022099
      dyz     :     0.018301
      dx2y2   :     0.018846
      dxy     :     0.017931

  6 C s       :     2.891843  s :     2.891843
      pz      :     1.056919  p :     3.124393
      px      :     1.021723
      py      :     1.045751
      dz2     :     0.017119  d :     0.092302
      dxz     :     0.024170
      dyz     :     0.011211
      dx2y2   :     0.014906
      dxy     :     0.024896

  7 H s       :     0.882791  s :     0.882791
      pz      :     0.019720  p :     0.041276
      px      :     0.006103
      py      :     0.015453

  8 C s       :     2.865047  s :     2.865047
      pz      :     1.035515  p :     3.048818
      px      :     1.015520
      py      :     0.997782
      dz2     :     0.024095  d :     0.111748
      dxz     :     0.025482
      dyz     :     0.021006
      dx2y2   :     0.019311
      dxy     :     0.021854

  9 H s       :     0.883335  s :     0.883335
      pz      :     0.006424  p :     0.041437
      px      :     0.018479
      py      :     0.016535

 10 C s       :     2.886207  s :     2.886207
      pz      :     1.032169  p :     3.085919
      px      :     1.033853
      py      :     1.019897
      dz2     :     0.017160  d :     0.094640
      dxz     :     0.022256
      dyz     :     0.018085
      dx2y2   :     0.019244
      dxy     :     0.017895

 11 H s       :     0.880050  s :     0.880050
      pz      :     0.016737  p :     0.041937
      px      :     0.018768
      py      :     0.006432

 12 C s       :     2.873010  s :     2.873010
      pz      :     1.050024  p :     3.001798
      px      :     0.979334
      py      :     0.972440
      dz2     :     0.022165  d :     0.140398
      dxz     :     0.037630
      dyz     :     0.017779
      dx2y2   :     0.027190
      dxy     :     0.035633

 13 H s       :     0.884796  s :     0.884796
      pz      :     0.022535  p :     0.040131
      px      :     0.010700
      py      :     0.006896

 14 H s       :     0.890465  s :     0.890465
      pz      :     0.008777  p :     0.039613
      px      :     0.008770
      py      :     0.022066

 15 C s       :     2.839429  s :     2.839429
      pz      :     0.839353  p :     2.592002
      px      :     0.813579
      py      :     0.939071
      dz2     :     0.058469  d :     0.320457
      dxz     :     0.046261
      dyz     :     0.084864
      dx2y2   :     0.051254
      dxy     :     0.079609

 16 H s       :     0.678834  s :     0.678834
      pz      :     0.032383  p :     0.119888
      px      :     0.029495
      py      :     0.058009

 17 N s       :     3.179948  s :     3.179948
      pz      :     1.550129  p :     4.041163
      px      :     1.298361
      py      :     1.192672
      dz2     :     0.011408  d :     0.060636
      dxz     :     0.013862
      dyz     :     0.002527
      dx2y2   :     0.016158
      dxy     :     0.016680

 18 O s       :     3.456577  s :     3.456577
      pz      :     1.709213  p :     4.688084
      px      :     1.717529
      py      :     1.261342
      dz2     :     0.005542  d :     0.048966
      dxz     :     0.005414
      dyz     :     0.014909
      dx2y2   :     0.009979
      dxy     :     0.013122

 19 H s       :     0.778832  s :     0.778832
      pz      :     0.040911  p :     0.083575
      px      :     0.030378
      py      :     0.012286

 20 O s       :     3.545499  s :     3.545499
      pz      :     1.459857  p :     4.710514
      px      :     1.461201
      py      :     1.789456
      dz2     :     0.013415  d :     0.057381
      dxz     :     0.021005
      dyz     :     0.007375
      dx2y2   :     0.008868
      dxy     :     0.006718

 21 H s       :     0.882332  s :     0.882332
      pz      :     0.023876  p :     0.039862
      px      :     0.009756
      py      :     0.006230

 22 H s       :     0.790850  s :     0.790850
      pz      :     0.021733  p :     0.081747
      px      :     0.016394
      py      :     0.043619



                      *****************************
                      * MAYER POPULATION ANALYSIS *
                      *****************************

  NA   - Mulliken gross atomic population
  ZA   - Total nuclear charge
  QA   - Mulliken gross atomic charge
  VA   - Mayer's total valence
  BVA  - Mayer's bonded valence
  FA   - Mayer's free valence

  ATOM       NA         ZA         QA         VA         BVA        FA
  0 C      6.1546     6.0000    -0.1546     3.9266     3.9266    -0.0000
  1 C      6.1440     6.0000    -0.1440     3.9241     3.9241    -0.0000
  2 C      6.1450     6.0000    -0.1450     3.9292     3.9292     0.0000
  3 H      0.8500     1.0000     0.1500     0.9532     0.9532    -0.0000
  4 H      0.8570     1.0000     0.1430     0.9557     0.9557     0.0000
  5 C      6.1621     6.0000    -0.1621     3.9303     3.9303    -0.0000
  6 C      6.2601     6.0000    -0.2601     3.8158     3.8158     0.0000
  7 H      0.8497     1.0000     0.1503     0.9532     0.9532     0.0000
  8 C      6.0178     6.0000    -0.0178     3.8655     3.8655    -0.0000
  9 H      0.8513     1.0000     0.1487     0.9538     0.9538     0.0000
 10 C      6.1404     6.0000    -0.1404     3.9293     3.9293     0.0000
 11 H      0.8386     1.0000     0.1614     0.9539     0.9539    -0.0000
 12 C      5.9951     6.0000     0.0049     3.7354     3.7354     0.0000
 13 H      0.8562     1.0000     0.1438     0.9528     0.9528    -0.0000
 14 H      0.8688     1.0000     0.1312     0.9526     0.9526     0.0000
 15 C      5.1775     6.0000     0.8225     3.6792     3.6792     0.0000
 16 H      0.6301     1.0000     0.3699     0.8738     0.8738    -0.0000
 17 N      7.7016     7.0000    -0.7016     2.7519     2.7519     0.0000
 18 O      8.6244     8.0000    -0.6244     1.8534     1.8534    -0.0000
 19 H      0.7094     1.0000     0.2906     0.9046     0.9046     0.0000
 20 O      8.5979     8.0000    -0.5979     1.8794     1.8794     0.0000
 21 H      0.8375     1.0000     0.1625     0.9408     0.9408     0.0000
 22 H      0.7308     1.0000     0.2692     0.9086     0.9086    -0.0000

  Mayer bond orders larger than 0.100000
B(  0-C ,  1-C ) :   1.4528 B(  0-C ,  9-H ) :   0.9621 B(  0-C , 10-C ) :   1.4464 
B(  1-C ,  5-C ) :   1.4451 B(  1-C ,  7-H ) :   0.9614 B(  2-C ,  4-H ) :   0.9604 
B(  2-C ,  8-C ) :   1.4385 B(  2-C , 10-C ) :   1.4556 B(  3-H , 10-C ) :   0.9612 
B(  5-C ,  8-C ) :   1.4461 B(  5-C , 11-H ) :   0.9542 B(  6-C ,  8-C ) :   0.9662 
B(  6-C , 12-C ) :   0.9441 B(  6-C , 13-H ) :   0.9681 B(  6-C , 14-H ) :   0.9725 
B( 12-C , 15-C ) :   0.9198 B( 12-C , 17-N ) :   0.9700 B( 12-C , 21-H ) :   0.9570 
B( 15-C , 18-O ) :   0.9901 B( 15-C , 20-O ) :   1.8053 B( 16-H , 18-O ) :   0.8411 
B( 17-N , 19-H ) :   0.8894 B( 17-N , 22-H ) :   0.9115 

-------
TIMINGS
-------

Total SCF time: 0 days 0 hours 0 min 38 sec 

Total time                  ....      38.062 sec
Sum of individual times     ....      36.298 sec  ( 95.4%)

SCF preparation             ....       0.019 sec  (  0.0%)
Fock matrix formation       ....      36.191 sec  ( 95.1%)
  Startup                   ....       0.001 sec  (  0.0% of F)
  Coulomb+Exchange Fock     ....      37.936 sec  (104.8% of F)
Diagonalization             ....       0.000 sec  (  0.0%)
Density matrix formation    ....       0.007 sec  (  0.0%)
Total Energy calculation    ....       0.001 sec  (  0.0%)
Population analysis         ....       0.003 sec  (  0.0%)
Orbital Transformation      ....       0.009 sec  (  0.0%)
Orbital Orthonormalization  ....       0.000 sec  (  0.0%)
DIIS solution               ....       0.044 sec  (  0.1%)
SOSCF solution              ....       0.021 sec  (  0.1%)
Finished LeanSCF after  38.1 sec

Maximum memory used throughout the entire LEANSCF-calculation: 17.9 MB

------------------------------------------------------------------------------
                                ORCA  MP2 
------------------------------------------------------------------------------

Freezing NCore=24 chemical core electrons
MP2 will be done in the AO integral direct mode
The Q1-step will be done using symmetric double matrices
Dimension of the basis                    ...  223
Memory devoted for MP2                    ... 4096 MB   
Memory needed for all in one shot         ... 1361 MB
Number of MOs that can be treated together...   95      
MP2 density construction                  ... relaxed
The MP2 gradient is requested => amplitudes will be stored on disk
Total number of MOs              ...   32
Number of MOs treated per batch  ...   32 
Number of batches necessary      ...    1 
OPERATORS   0/  0 PASS   0
-----------------------------------------------
 MP2 CORRELATION ENERGY   :     -1.709025677 Eh
-----------------------------------------------


---------------------
MP2 DENSITY FORMATION
---------------------

Completing the external part of the density      ... done
Storing the unrelaxed density                    ... done

Calculating G(D)                                 ... done
Completing the Lagrangian                        ... done
Solving the Z-vector equations                   ... 
-------------------
SHARK CP-SCF DRIVER
-------------------

Dimension of the orbital basis          ...    223
Dimension of the CPSCF-problem          ...   7876
Number of operators                     ...      1
Max. number of iterations               ...    128
Convergence Tolerance                   ... 1.0e-04
Number of perturbations                 ...      1
Perturbation type                       ... REAL

----------------------------
POPLE LINEAR EQUATION SOLVER
----------------------------

  ITERATION   0:   ||err||_max =   1.4581e-01 (   4.2 sec)
  ITERATION   1:   ||err||_max =   4.0341e-02 (   4.3 sec)
  ITERATION   2:   ||err||_max =   1.6106e-02 (   4.4 sec)
  ITERATION   3:   ||err||_max =   4.7899e-03 (   4.3 sec)
  ITERATION   4:   ||err||_max =   1.8966e-03 (   4.3 sec)
  ITERATION   5:   ||err||_max =   7.4534e-04 (   4.3 sec)
  ITERATION   6:   ||err||_max =   3.2225e-04 (   4.3 sec)
  ITERATION   7:   ||err||_max =   1.4393e-04 (   4.3 sec)
  ITERATION   8:   ||err||_max =   4.8114e-05 (   4.3 sec)
                                                 ... done
Finalizing the relaxed density                   ... done
Transforming P to the AO basis                   ... done
Storing the relaxed density                      ... done

------------------------------------
ENERGY WEIGHTED DENSITY FINALIZATION
------------------------------------

Gathering the parts of the W-matrix              ...                                                      done
Forming the Z-density                            ... done
Transforming Z to the AO basis                   ... done
Calculating G(Z)                                 ... done
Finalizing the W-matrix                          ...                                                      done
Transforming W to the AO basis and storing       ... done

                *********************************************
                * UNRELAXED MP2 DENSITY POPULATION ANALYSIS *
                *********************************************

------------------------------------------------------------------------------
                           ORCA POPULATION ANALYSIS
------------------------------------------------------------------------------
Input electron density              ... 4.pmp2ur
BaseName (.gbw .S,...)              ... 4

                    ********************************
                    * MULLIKEN POPULATION ANALYSIS *
                    ********************************

-----------------------
MULLIKEN ATOMIC CHARGES
-----------------------
   0 C :   -0.155094
   1 C :   -0.145656
   2 C :   -0.145537
   3 H :    0.151245
   4 H :    0.144390
   5 C :   -0.162507
   6 C :   -0.261006
   7 H :    0.151571
   8 C :   -0.019983
   9 H :    0.149984
  10 C :   -0.142128
  11 H :    0.162587
  12 C :   -0.000784
  13 H :    0.144421
  14 H :    0.132085
  15 C :    0.788307
  16 H :    0.366651
  17 N :   -0.693728
  18 O :   -0.610129
  19 H :    0.288781
  20 O :   -0.574621
  21 H :    0.163083
  22 H :    0.268067
Sum of atomic charges:   -0.0000000

--------------------------------
MULLIKEN REDUCED ORBITAL CHARGES
--------------------------------
  0 C s       :     3.144729  s :     3.144729
      pz      :     0.934831  p :     2.948940
      px      :     1.007814
      py      :     1.006295
      dz2     :     0.014331  d :     0.061425
      dxz     :     0.012810
      dyz     :     0.011684
      dx2y2   :     0.009614
      dxy     :     0.012986
  1 C s       :     3.145133  s :     3.145133
      pz      :     1.011880  p :     2.938753
      px      :     0.929814
      py      :     0.997059
      dz2     :     0.011376  d :     0.061770
      dxz     :     0.012725
      dyz     :     0.012768
      dx2y2   :     0.012886
      dxy     :     0.012015
  2 C s       :     3.133808  s :     3.133808
      pz      :     1.008362  p :     2.950338
      px      :     0.931546
      py      :     1.010431
      dz2     :     0.011098  d :     0.061391
      dxz     :     0.012723
      dyz     :     0.012808
      dx2y2   :     0.012882
      dxy     :     0.011880
  3 H s       :     0.832408  s :     0.832408
      pz      :     0.006379  p :     0.016346
      px      :     0.007092
      py      :     0.002875
  4 H s       :     0.839172  s :     0.839172
      pz      :     0.007563  p :     0.016438
      px      :     0.002776
      py      :     0.006099
  5 C s       :     3.137900  s :     3.137900
      pz      :     1.000490  p :     2.963134
      px      :     1.019814
      py      :     0.942830
      dz2     :     0.011452  d :     0.061473
      dxz     :     0.014451
      dyz     :     0.011473
      dx2y2   :     0.012855
      dxy     :     0.011242
  6 C s       :     3.248038  s :     3.248038
      pz      :     1.026331  p :     2.948402
      px      :     0.926515
      py      :     0.995556
      dz2     :     0.012642  d :     0.064567
      dxz     :     0.015631
      dyz     :     0.009456
      dx2y2   :     0.010963
      dxy     :     0.015874
  7 H s       :     0.832095  s :     0.832095
      pz      :     0.007551  p :     0.016334
      px      :     0.002714
      py      :     0.006069
  8 C s       :     3.126150  s :     3.126150
      pz      :     0.934560  p :     2.824441
      px      :     0.953279
      py      :     0.936603
      dz2     :     0.014859  d :     0.069392
      dxz     :     0.014882
      dyz     :     0.013105
      dx2y2   :     0.012712
      dxy     :     0.013834
  9 H s       :     0.833644  s :     0.833644
      pz      :     0.002826  p :     0.016372
      px      :     0.007097
      py      :     0.006449
 10 C s       :     3.143745  s :     3.143745
      pz      :     0.994241  p :     2.936577
      px      :     1.005341
      py      :     0.936994
      dz2     :     0.011595  d :     0.061807
      dxz     :     0.014594
      dyz     :     0.011361
      dx2y2   :     0.012928
      dxy     :     0.011328
 11 H s       :     0.820940  s :     0.820940
      pz      :     0.006402  p :     0.016473
      px      :     0.007192
      py      :     0.002878
 12 C s       :     3.184626  s :     3.184626
      pz      :     1.011987  p :     2.730020
      px      :     0.864465
      py      :     0.853568
      dz2     :     0.015199  d :     0.086137
      dxz     :     0.022219
      dyz     :     0.012140
      dx2y2   :     0.016476
      dxy     :     0.020103
 13 H s       :     0.840349  s :     0.840349
      pz      :     0.008130  p :     0.015230
      px      :     0.004368
      py      :     0.002732
 14 H s       :     0.852546  s :     0.852546
      pz      :     0.003530  p :     0.015369
      px      :     0.003679
      py      :     0.008160
 15 C s       :     2.945381  s :     2.945381
      pz      :     0.673966  p :     2.107430
      px      :     0.665912
      py      :     0.767551
      dz2     :     0.031445  d :     0.158883
      dxz     :     0.021256
      dyz     :     0.040791
      dx2y2   :     0.027211
      dxy     :     0.038179
 16 H s       :     0.590689  s :     0.590689
      pz      :     0.011051  p :     0.042660
      px      :     0.010052
      py      :     0.021558
 17 N s       :     3.600422  s :     3.600422
      pz      :     1.576913  p :     4.037545
      px      :     1.279605
      py      :     1.181028
      dz2     :     0.012844  d :     0.055760
      dxz     :     0.012239
      dyz     :     0.005800
      dx2y2   :     0.012006
      dxy     :     0.012872
 18 O s       :     3.835254  s :     3.835254
      pz      :     1.729933  p :     4.725859
      px      :     1.736887
      py      :     1.259039
      dz2     :     0.007913  d :     0.049016
      dxz     :     0.008561
      dyz     :     0.013093
      dx2y2   :     0.007568
      dxy     :     0.011881
 19 H s       :     0.682729  s :     0.682729
      pz      :     0.013046  p :     0.028490
      px      :     0.010597
      py      :     0.004847
 20 O s       :     3.872839  s :     3.872839
      pz      :     1.409736  p :     4.647305
      px      :     1.419364
      py      :     1.818206
      dz2     :     0.015337  d :     0.054478
      dxz     :     0.012658
      dyz     :     0.008331
      dx2y2   :     0.010133
      dxy     :     0.008019
 21 H s       :     0.822195  s :     0.822195
      pz      :     0.008400  p :     0.014722
      px      :     0.003792
      py      :     0.002530
 22 H s       :     0.703592  s :     0.703592
      pz      :     0.007737  p :     0.028341
      px      :     0.005781
      py      :     0.014823


                     *******************************
                     * LOEWDIN POPULATION ANALYSIS *
                     *******************************

----------------------
LOEWDIN ATOMIC CHARGES
----------------------
   0 C :   -0.079358
   1 C :   -0.070227
   2 C :   -0.077640
   3 H :    0.076430
   4 H :    0.072258
   5 C :   -0.081887
   6 C :   -0.108727
   7 H :    0.076380
   8 C :   -0.027470
   9 H :    0.075705
  10 C :   -0.067695
  11 H :    0.078430
  12 C :   -0.018918
  13 H :    0.075201
  14 H :    0.070163
  15 C :    0.223652
  16 H :    0.198885
  17 N :   -0.277416
  18 O :   -0.184470
  19 H :    0.136593
  20 O :   -0.294645
  21 H :    0.078018
  22 H :    0.126739

-------------------------------
LOEWDIN REDUCED ORBITAL CHARGES
-------------------------------
  0 C s       :     2.885903  s :     2.885903
      pz      :     1.030881  p :     3.079703
      px      :     1.030961
      py      :     1.017860
      dz2     :     0.026916  d :     0.113752
      dxz     :     0.025531
      dyz     :     0.022625
      dx2y2   :     0.016344
      dxy     :     0.022336
  1 C s       :     2.886404  s :     2.886404
      pz      :     1.025350  p :     3.069352
      px      :     1.031150
      py      :     1.012853
      dz2     :     0.020140  d :     0.114471
      dxz     :     0.025100
      dyz     :     0.021876
      dx2y2   :     0.023785
      dxy     :     0.023570
  2 C s       :     2.883345  s :     2.883345
      pz      :     1.025740  p :     3.079797
      px      :     1.031490
      py      :     1.022567
      dz2     :     0.020034  d :     0.114497
      dxz     :     0.025064
      dyz     :     0.022112
      dx2y2   :     0.023781
      dxy     :     0.023507
  3 H s       :     0.877667  s :     0.877667
      pz      :     0.018036  p :     0.045903
      px      :     0.020134
      py      :     0.007733
  4 H s       :     0.881671  s :     0.881671
      pz      :     0.021422  p :     0.046072
      px      :     0.007641
      py      :     0.017009
  5 C s       :     2.885006  s :     2.885006
      pz      :     1.028587  p :     3.082382
      px      :     1.035206
      py      :     1.018589
      dz2     :     0.020770  d :     0.114500
      dxz     :     0.026137
      dyz     :     0.022522
      dx2y2   :     0.022933
      dxy     :     0.022137
  6 C s       :     2.891607  s :     2.891607
      pz      :     1.050638  p :     3.105443
      px      :     1.015314
      py      :     1.039490
      dz2     :     0.020949  d :     0.111677
      dxz     :     0.028081
      dyz     :     0.015006
      dx2y2   :     0.018954
      dxy     :     0.028687
  7 H s       :     0.877692  s :     0.877692
      pz      :     0.021448  p :     0.045928
      px      :     0.007450
      py      :     0.017029
  8 C s       :     2.865381  s :     2.865381
      pz      :     1.028595  p :     3.028932
      px      :     1.008518
      py      :     0.991819
      dz2     :     0.028435  d :     0.133157
      dxz     :     0.029926
      dyz     :     0.025463
      dx2y2   :     0.023329
      dxy     :     0.026004
  9 H s       :     0.878226  s :     0.878226
      pz      :     0.007766  p :     0.046070
      px      :     0.020174
      py      :     0.018129
 10 C s       :     2.886030  s :     2.886030
      pz      :     1.025881  p :     3.067174
      px      :     1.027539
      py      :     1.013753
      dz2     :     0.020974  d :     0.114491
      dxz     :     0.026159
      dyz     :     0.022205
      dx2y2   :     0.023188
      dxy     :     0.021966
 11 H s       :     0.874904  s :     0.874904
      pz      :     0.018387  p :     0.046667
      px      :     0.020496
      py      :     0.007784
 12 C s       :     2.873280  s :     2.873280
      pz      :     1.044113  p :     2.987292
      px      :     0.974804
      py      :     0.968375
      dz2     :     0.025878  d :     0.158346
      dxz     :     0.041112
      dyz     :     0.021494
      dx2y2   :     0.030640
      dxy     :     0.039223
 13 H s       :     0.879838  s :     0.879838
      pz      :     0.024453  p :     0.044961
      px      :     0.012244
      py      :     0.008265
 14 H s       :     0.885364  s :     0.885364
      pz      :     0.010196  p :     0.044473
      px      :     0.010209
      py      :     0.024067
 15 C s       :     2.840287  s :     2.840287
      pz      :     0.845600  p :     2.604189
      px      :     0.820851
      py      :     0.937738
      dz2     :     0.060133  d :     0.331872
      dxz     :     0.049659
      dyz     :     0.086814
      dx2y2   :     0.053600
      dxy     :     0.081666
 16 H s       :     0.678752  s :     0.678752
      pz      :     0.033200  p :     0.122363
      px      :     0.030266
      py      :     0.058896
 17 N s       :     3.178235  s :     3.178235
      pz      :     1.539270  p :     4.014539
      px      :     1.289635
      py      :     1.185634
      dz2     :     0.016314  d :     0.084643
      dxz     :     0.018930
      dyz     :     0.007138
      dx2y2   :     0.020949
      dxy     :     0.021312
 18 O s       :     3.454619  s :     3.454619
      pz      :     1.697233  p :     4.656318
      px      :     1.705206
      py      :     1.253879
[...]
      pz      :     1.023920  p :     3.069870
      px      :     1.031750
      py      :     1.014200
      dz2     :     0.018176  d :     0.106519
      dxz     :     0.023439
      dyz     :     0.020086
      dx2y2   :     0.022598
      dxy     :     0.022220
  2 C s       :     2.895245  s :     2.895245
      pz      :     1.022022  p :     3.072068
      px      :     1.030449
      py      :     1.019597
      dz2     :     0.017912  d :     0.106707
      dxz     :     0.023282
      dyz     :     0.020407
      dx2y2   :     0.022879
      dxy     :     0.022227
  3 H s       :     0.880028  s :     0.880028
      pz      :     0.017071  p :     0.045065
      px      :     0.020068
      py      :     0.007925
  4 H s       :     0.883394  s :     0.883394
      pz      :     0.020396  p :     0.045115
      px      :     0.007793
      py      :     0.016926
  5 C s       :     2.896915  s :     2.896915
      pz      :     1.025142  p :     3.073410
      px      :     1.034021
      py      :     1.014248
      dz2     :     0.018705  d :     0.106512
      dxz     :     0.024417
      dyz     :     0.020647
      dx2y2   :     0.022112
      dxy     :     0.020631
  6 C s       :     2.895704  s :     2.895704
      pz      :     1.058850  p :     3.125521
      px      :     1.022542
      py      :     1.044129
      dz2     :     0.019389  d :     0.105685
      dxz     :     0.026426
      dyz     :     0.014885
      dx2y2   :     0.019151
      dxy     :     0.025835
  7 H s       :     0.879952  s :     0.879952
      pz      :     0.020603  p :     0.045084
      px      :     0.007654
      py      :     0.016827
  8 C s       :     2.874800  s :     2.874800
      pz      :     1.024509  p :     3.026230
      px      :     1.006617
      py      :     0.995104
      dz2     :     0.025880  d :     0.124593
      dxz     :     0.028134
      dyz     :     0.023442
      dx2y2   :     0.022625
      dxy     :     0.024512
  9 H s       :     0.880211  s :     0.880211
      pz      :     0.008055  p :     0.045152
      px      :     0.019805
      py      :     0.017292
 10 C s       :     2.896076  s :     2.896076
      pz      :     1.024185  p :     3.068536
      px      :     1.029469
      py      :     1.014881
      dz2     :     0.018940  d :     0.106522
      dxz     :     0.024501
      dyz     :     0.020354
      dx2y2   :     0.022137
      dxy     :     0.020589
 11 H s       :     0.876006  s :     0.876006
      pz      :     0.017335  p :     0.045813
      px      :     0.020593
      py      :     0.007886
 12 C s       :     2.877434  s :     2.877434
      pz      :     1.050731  p :     3.009240
      px      :     0.973144
      py      :     0.985364
      dz2     :     0.025269  d :     0.150484
      dxz     :     0.037536
      dyz     :     0.020019
      dx2y2   :     0.031201
      dxy     :     0.036458
 13 H s       :     0.878437  s :     0.878437
      pz      :     0.023838  p :     0.044853
      px      :     0.012323
      py      :     0.008692
 14 H s       :     0.883422  s :     0.883422
      pz      :     0.010502  p :     0.044303
      px      :     0.010162
      py      :     0.023638
 15 C s       :     2.851281  s :     2.851281
      pz      :     0.908780  p :     2.677114
      px      :     0.832944
      py      :     0.935390
      dz2     :     0.062403  d :     0.308190
      dxz     :     0.048167
      dyz     :     0.099771
      dx2y2   :     0.039145
      dxy     :     0.058705
 16 H s       :     0.690865  s :     0.690865
      pz      :     0.035095  p :     0.119654
      px      :     0.032326
      py      :     0.052233
 17 N s       :     3.196582  s :     3.196582
      pz      :     1.436798  p :     3.982940
      px      :     1.335944
      py      :     1.210198
      dz2     :     0.018935  d :     0.082868
      dxz     :     0.016031
      dyz     :     0.008544
      dx2y2   :     0.019742
      dxy     :     0.019616
 18 O s       :     3.479613  s :     3.479613
      pz      :     1.643792  p :     4.604360
      px      :     1.696405
      py      :     1.264163
      dz2     :     0.010758  d :     0.073199
      dxz     :     0.010346
      dyz     :     0.023627
      dx2y2   :     0.013467
      dxy     :     0.015000
 19 H s       :     0.783653  s :     0.783653
      pz      :     0.043988  p :     0.084939
      px      :     0.026946
      py      :     0.014006
 20 O s       :     3.560997  s :     3.560997
      pz      :     1.434880  p :     4.595289
      px      :     1.411648
      py      :     1.748762
      dz2     :     0.021298  d :     0.078803
      dxz     :     0.024149
      dyz     :     0.013948
      dx2y2   :     0.010234
      dxy     :     0.009174
 21 H s       :     0.876271  s :     0.876271
      pz      :     0.025437  p :     0.044824
      px      :     0.011029
      py      :     0.008359
 22 H s       :     0.790022  s :     0.790022
      pz      :     0.021875  p :     0.083883
      px      :     0.019078
      py      :     0.042929


                      *****************************
                      * MAYER POPULATION ANALYSIS *
                      *****************************

  NA   - Mulliken gross atomic population
  ZA   - Total nuclear charge
  QA   - Mulliken gross atomic charge
  VA   - Mayer's total valence
  BVA  - Mayer's bonded valence
  FA   - Mayer's free valence

  ATOM       NA         ZA         QA         VA         BVA        FA
  0 C      6.1200     6.0000    -0.1200     4.0221     3.6968     0.3253
  1 C      6.1224     6.0000    -0.1224     4.0206     3.6957     0.3249
  2 C      6.1237     6.0000    -0.1237     4.0209     3.6896     0.3313
  3 H      0.8781     1.0000     0.1219     0.9651     0.9186     0.0465
  4 H      0.8854     1.0000     0.1146     0.9673     0.9196     0.0477
  5 C      6.1374     6.0000    -0.1374     4.0220     3.6895     0.3325
  6 C      6.2711     6.0000    -0.2711     3.9382     3.6635     0.2746
  7 H      0.8777     1.0000     0.1223     0.9651     0.9187     0.0464
  8 C      5.9704     6.0000     0.0296     4.0005     3.6582     0.3423
  9 H      0.8786     1.0000     0.1214     0.9653     0.9189     0.0465
 10 C      6.1195     6.0000    -0.1195     4.0254     3.7009     0.3246
 11 H      0.8663     1.0000     0.1337     0.9680     0.9212     0.0469
 12 C      6.0286     6.0000    -0.0286     3.8863     3.6103     0.2760
 13 H      0.8707     1.0000     0.1293     0.9666     0.9171     0.0495
 14 H      0.8813     1.0000     0.1187     0.9640     0.9138     0.0502
 15 C      5.3931     6.0000     0.6069     3.9488     3.6725     0.2763
 16 H      0.6590     1.0000     0.3410     0.9027     0.8585     0.0443
 17 N      7.6173     7.0000    -0.6173     3.0167     2.6930     0.3238
 18 O      8.5107     8.0000    -0.5107     2.2385     1.8863     0.3523
 19 H      0.7349     1.0000     0.2651     0.9247     0.8790     0.0457
 20 O      8.4529     8.0000    -0.4529     2.2981     1.9083     0.3898
 21 H      0.8551     1.0000     0.1449     0.9551     0.9075     0.0476
 22 H      0.7458     1.0000     0.2542     0.9210     0.8747     0.0463

  Mayer bond orders larger than 0.100000
B(  0-C ,  1-C ) :   1.3549 B(  0-C ,  9-H ) :   0.9175 B(  0-C , 10-C ) :   1.3514 
B(  1-C ,  5-C ) :   1.3480 B(  1-C ,  7-H ) :   0.9164 B(  2-C ,  4-H ) :   0.9131 
B(  2-C ,  8-C ) :   1.3352 B(  2-C , 10-C ) :   1.3553 B(  3-H , 10-C ) :   0.9163 
B(  5-C ,  8-C ) :   1.3384 B(  5-C , 11-H ) :   0.9074 B(  6-C ,  8-C ) :   0.9239 
B(  6-C , 12-C ) :   0.8944 B(  6-C , 13-H ) :   0.9147 B(  6-C , 14-H ) :   0.9192 
B( 12-C , 15-C ) :   0.8781 B( 12-C , 17-N ) :   0.9485 B( 12-C , 21-H ) :   0.9085 
B( 15-C , 18-O ) :   1.0179 B( 15-C , 20-O ) :   1.7806 B( 16-H , 18-O ) :   0.8126 
B( 17-N , 19-H ) :   0.8587 B( 17-N , 22-H ) :   0.8732 


----------------------------------
MP2 DERIVATIVE INTEGRAL GENERATION
----------------------------------

Input SCF Electron Density              ... 4.scfp
Input Correlated Electron Density       ... 4.pmp2re
Input Energy Weighted Density           ... 4.wmp2.tmp
Input Wavefunction Amplitudes           ... 4.mp2tsaa.tmp

Nuclear repulsion gradient              ... done (  0.0 sec)
HCore & Overlap gradient  (SHARK)       ... done (  0.2 sec)
Analytic two-electron gradient terms    ... 
  Batch handling in the gradient evaluation:
  General contraction                   ... not used
  Memory available                      ... 4077.7 MB
  Memory per occupied orbital in Q2     ...   12.1 MB
  Memory per occupied orbital in Q3     ...    0.0 MB
  Total memory requirement per |i>      ...   12.2 MB
  Number of orbitals treated per batch  ...     32
  Number of batches to be done          ...      1
done ( 40.1 sec)

---------------------------------------
MP2 TOTAL ENERGY:     -553.144261232 Eh
---------------------------------------

The final MP2 gradient
  0:  -0.00000770  -0.00000729   0.00000912
  1:   0.00000773   0.00000551  -0.00000993
  2:   0.00000565   0.00001793   0.00000004
  3:  -0.00000026  -0.00000141   0.00000005
  4:   0.00000271   0.00000064  -0.00000059
  5:   0.00000532  -0.00001817  -0.00001284
  6:   0.00002604   0.00002108  -0.00001494
  7:   0.00000040  -0.00000293   0.00000223
  8:  -0.00001737  -0.00000356   0.00002141
  9:  -0.00000208   0.00000278  -0.00000062
 10:  -0.00000986  -0.00000627  -0.00000401
 11:   0.00000121   0.00000650   0.00000120
 12:  -0.00002768  -0.00005134  -0.00000884
 13:  -0.00000736  -0.00000023  -0.00000163
 14:  -0.00000746  -0.00000774   0.00000843
 15:  -0.00001199   0.00003404   0.00002449
 16:  -0.00000177  -0.00000045   0.00000237
 17:   0.00003624  -0.00000194   0.00000984
 18:  -0.00000181  -0.00000629  -0.00000308
 19:   0.00000355   0.00000846   0.00000131
 20:   0.00001695  -0.00000929  -0.00002423
 21:   0.00000614   0.00002035   0.00000454
 22:  -0.00001659  -0.00000039  -0.00000432

-----------------------------------
NORM OF THE MP2 GRADIENT:  0.000112
-----------------------------------

Maximum memory used throughout the entire MP2-calculation: 1448.7 MB

-------------------------   --------------------
FINAL SINGLE POINT ENERGY      -553.144261232219
-------------------------   --------------------

                                *** OPTIMIZATION RUN DONE ***


------------------------------------------------------------------------------
                              ORCA PROPERTY CALCULATIONS
------------------------------------------------------------------------------

GBWName                                 ... 4.gbw
Number of atoms                         ...     23
Number of basis functions               ...    223
Max core memory                         ...   4096 MB

Electric properties:
Dipole moment                           ... YES
Quadrupole moment                       ...  NO
Static polarizability (Dipole/Dipole)   ...  NO
Static polarizability (Dipole/Quad.)    ...  NO
Static polarizability (Quad./Quad.)     ...  NO
Static polarizability (Velocity)        ...  NO
Static hyperpolarizability              ...  NO

Atomic electric properties:
Dipole moment                           ...  NO
Quadrupole moment                       ...  NO
Static polarizability                   ...  NO

Choice of electric origin               ... Center of mass
Position of electric origin             ...    -6.353860     2.598403     0.323540

General magnetic properties:
Magnetizability                         ...  NO

EPR properties:
g-Tensor (aka g-matrix)                 ...  NO
Zero-Field splitting spin-orbit         ...  NO
Zero-field splitting spin-spin          ...  NO
Hyperfine couplings                     ...  NO (   0 nuclei)
Quadrupole couplings                    ...  NO (   0 nuclei)
Contact density                         ...  NO (   0 nuclei)

NMR properties:
Chemical shifts                         ...  NO (   0 nuclei)
Spin-rotation constants                 ...  NO (   0 nuclei)
Spin-spin couplings                     ...  NO (   0 nuclei,    0 pairs)

Choice of magnetic origin               ... GIAO
Position of magnetic origin             ...     0.000000     0.000000     0.000000

Properties with geometric perturbations:
SCF Hessian                             ...  NO
IR spectrum                             ...  NO
VCD spectrum                            ...  NO
X-ray spectroscopy properties:
SCF XES/XAS/RIXS spectra                ...  NO

SCF SOC stabilization energy            ...  NO
Diagonal Born-Oppenheimer correction    ...  NO

-------------
DIPOLE MOMENT
-------------

Method             : SCF
Type of density    : Electron Density
Multiplicity       :   1
Irrep              :   0
Energy             :  -551.4298682132981639 Eh
Basis              : AO
                                X                 Y                 Z
Electronic contribution:      1.773354027      -3.540046886      -0.327793111
Nuclear contribution   :     -2.557687406       3.779805707       0.416328478
                        -----------------------------------------
Total Dipole Moment    :     -0.784333379       0.239758821       0.088535367
                        -----------------------------------------
Magnitude (a.u.)       :      0.824925241
Magnitude (Debye)      :      2.096793327



--------------------
Rotational spectrum 
--------------------
 
Rotational constants in cm-1:             0.058363             0.020869             0.018655 
Rotational constants in MHz :          1749.675784           625.646962           559.250843 

Dipole components along the rotational axes: 
x,y,z [a.u.] :    -0.663944    -0.488118     0.037688 
x,y,z [Debye]:    -1.687613    -1.240697     0.095794 

 

-------------
DIPOLE MOMENT
-------------

Method             : MP2
Type of density    : Electron Density
Multiplicity       :   1
Level              : Unrelaxed density
Irrep              :   0
Energy             :     0.0000000000000000 Eh
Basis              : AO
                                X                 Y                 Z
Electronic contribution:      1.798352409      -3.555264828      -0.350527598
Nuclear contribution   :     -2.557687406       3.779805707       0.416328478
                        -----------------------------------------
Total Dipole Moment    :     -0.759334996       0.224540878       0.065800881
                        -----------------------------------------
Magnitude (a.u.)       :      0.794567806
Magnitude (Debye)      :      2.019630861



--------------------
Rotational spectrum 
--------------------
 
Rotational constants in cm-1:             0.058363             0.020869             0.018655 
Rotational constants in MHz :          1749.675784           625.646962           559.250843 

Dipole components along the rotational axes: 
x,y,z [a.u.] :    -0.648760    -0.458223     0.021904 
x,y,z [Debye]:    -1.649017    -1.164711     0.055677 

 

-------------
DIPOLE MOMENT
-------------

Method             : MP2
Type of density    : Electron Density
Multiplicity       :   1
Level              : Relaxed density
Irrep              :   0
Energy             :     0.0000000000000000 Eh
Basis              : AO
                                X                 Y                 Z
Electronic contribution:      1.925255819      -3.631088474      -0.412864418
Nuclear contribution   :     -2.557687406       3.779805707       0.416328478
                        -----------------------------------------
Total Dipole Moment    :     -0.632431586       0.148717232       0.003464061
                        -----------------------------------------
Magnitude (a.u.)       :      0.649691101
Magnitude (Debye)      :      1.651383540



--------------------
Rotational spectrum 
--------------------
 
Rotational constants in cm-1:             0.058363             0.020869             0.018655 
Rotational constants in MHz :          1749.675784           625.646962           559.250843 

Dipole components along the rotational axes: 
x,y,z [a.u.] :    -0.560447    -0.328440    -0.011209 
x,y,z [Debye]:    -1.424542    -0.834827    -0.028491 

 

Dipole moment calculation done in   0.0 sec 

Maximum memory used throughout the entire PROP-calculation: 13.0 MB

--------------------------------
SUGGESTED CITATIONS FOR THIS RUN
--------------------------------

Below you find a list of papers that are relevant to this ORCA run
We neither can nor want to force you to cite these papers, but we appreciate if you do
You receive ORCA, which is the product of decades of hard work by many enthusiastic individuals, for free
The only thing we kindly ask in return is that you cite our papers,
We deeply appreciate it, if you show your appreciation for ORCA by not just citing the generic ORCA reference.

Please note that relegating all ORCA citations to the supporting information does *not* help us.
SI sections are not indexed - citations you put there will not count into any citation statistics
But we need these citations in order to attract the funding resources that allow us to do what we are doing

Therefore, if you are a happy ORCA user, please consider citing a few of the papers listed below in the main body of your paper

In addition to the list printed below, the program has created the file 4.bibtex that contains the list in bibtex format
You can import this file easily into all common literature databanks and citation aid programs


List of essential papers. We consider these as the minimum necessary citations

  1. Neese, F.
     Software update: the ORCA program system, version 6.0
     WIRES Comput. Molec. Sci. 2025 15(1), e70019
     doi.org/10.1002/wcms.7019

List of papers to cite with high priority. The work reported in these papers was absolutely
necessary for this run to complete.
Our perspective: the developers of density functionals and basis sets usually get cited in chemistry papers
Good! But without the algorithms to do something with them, the functionals or basis sets would not do anything.
Hence, in our opinion, the algorithm design and method developments papers are equally worthy of getting cited

  1. Neese, F.
     The SHARK Integral Generation and Digestion System
     J. Comp. Chem. 2022 44(3), 381
     doi.org/10.1002/jcc.26942

List of suggested additional citations. These are papers that are important in the 'surrounding' of 
of this run, or papers that preceded the highly important papers. If you like your results we are grateful for a citation.

  1. Neese, F.
     The ORCA program system
     WIRES Comput. Molec. Sci. 2012 2(1), 73-78
     doi.org/10.1002/wcms.81
  2. Neese, F.
     Software update: the ORCA program system, version 4.0
     WIRES Comput. Molec. Sci. 2018 8(1), 1-6
     doi.org/10.1002/wcms.1327
  3. Neese, F.; Wennmohs, F.; Becker, U.; Riplinger, C.
     The ORCA quantum chemistry program package
     J. Chem. Phys. 2020 152(22), 224108
     doi.org/10.1063/5.0004608
  4. Neese, F.
     Software update: The ORCA program system—Version 5.0
     WIRES Comput. Molec. Sci. 2022 12(1), e1606
     doi.org/10.1002/wcms.1606

List of optional additional citations

  1. Neese, F.
     Approximate second-order SCF convergence for spin unrestricted wavefunctions
     Chem. Phys. Lett. 2000 325(1-3), 93-98
     doi.org/10.1016/s0009-2614(00)00662-x

Timings for individual modules:

Sum of individual times          ...     1484.840 sec (=  24.747 min)
Startup calculation              ...        5.847 sec (=   0.097 min)   0.4 %
SCF iterations                   ...      258.836 sec (=   4.314 min)  17.4 %
Property calculations            ...        0.041 sec (=   0.001 min)   0.0 %
MP2 module                       ...     1220.096 sec (=  20.335 min)  82.2 %
Geometry relaxation              ...        0.019 sec (=   0.000 min)   0.0 %
                             ****ORCA TERMINATED NORMALLY****
TOTAL RUN TIME: 0 days 0 hours 24 minutes 45 seconds 71 msec
