
                                 *****************
                                 * O   R   C   A *
                                 *****************

                                            #,                                       
                                            ###                                      
                                            ####                                     
                                            #####                                    
                                            ######                                   
                                           ########,                                 
                                     ,,################,,,,,                         
                               ,,#################################,,                 
                          ,,##########################################,,             
                       ,#########################################, ''#####,          
                    ,#############################################,,   '####,        
                  ,##################################################,,,,####,       
                ,###########''''           ''''###############################       
              ,#####''   ,,,,##########,,,,          '''####'''          '####       
            ,##' ,,,,###########################,,,                        '##       
           ' ,,###''''                  '''############,,,                           
         ,,##''                                '''############,,,,        ,,,,,,###''
      ,#''                                            '''#######################'''  
     '                                                          ''''####''''         
             ,#######,   #######,   ,#######,      ##                                
            ,#'     '#,  ##    ##  ,#'     '#,    #''#        ,####,    ,#,          
            ##       ##  ##   ,#'  ##            #'  '#       #'       ,# #          
            ##       ##  #######   ##           ,######,      #####,      #          
            '#,     ,#'  ##    ##  '#,     ,#' ,#      #,     #,   #      #          
             '#######'   ##     ##  '#######'  #'      '#     '####' #    #          



                #########################################################
                #                        -***-                          #
                #          Department of theory and spectroscopy        #
                #                                                       #
                #                      Frank Neese                      #
                #                                                       #
                #     Directorship, Architecture, Infrastructure        #
                #                    SHARK, DRIVERS                     #
                #        Core code/Algorithms in most modules           #
                #                                                       #
                #        Max Planck Institute fuer Kohlenforschung      #
                #                Kaiser Wilhelm Platz 1                 #
                #                 D-45470 Muelheim/Ruhr                 #
                #                      Germany                          #
                #                                                       #
                #                  All rights reserved                  #
                #                        -***-                          #
                #########################################################


                         Program Version 6.1.0  -  RELEASE   -
                                (GIT: $679e74b$)
                          ($2025-06-10 18:02:51 +0200$)


 With contributions from (in alphabetic order):
[Max-Planck-Institut fuer Kohlenforschung]                               
  Daniel Aravena         : Magnetic Suceptibility                        
  Michael Atanasov       : Ab Initio Ligand Field Theory (pilot matlab implementation)
  Alexander A. Auer      : GIAO ZORA, VPT2 properties, NMR spectrum      
  Ute Becker             : All parallelization in ORCA, NUMFREQ, NUMCALC 
  Giovanni Bistoni       : ED, misc. LED, open-shell LED, HFLD           
  Dmytro Bykov           : pre 5.0 version of the SCF Hessian            
  Marcos Casanova-Páez   : Triplet and SCS-CIS(D). UHF-(DLPNO)-IP/EA/STEOM-CCSD. UHF-CVS-IP/STEOM-CCSD   
  Vijay G. Chilkuri      : MRCI spin determinant printing, contributions to CSF-ICE 
  Pauline Colinet        : FMM embedding                                 
  Dipayan Datta          : RHF DLPNO-CCSD density                        
  Achintya Kumar Dutta   : EOM-CC, STEOM-CC                              
  Nicolas Foglia         : Exact transition moments, OPA infrastructure, MCD improvements    
  Dmitry Ganyushin       : Spin-Orbit,Spin-Spin,Magnetic field MRCI      
  Miquel Garcia-Rates    : C-PCM and meta-GGA Hessian, CCSD/C-PCM, Gaussian charge scheme 
  Tiago L. C. Gouveia    : GS-ROHF, GS-ROCIS                             
  Yang Guo               : DLPNO-NEVPT2, F12-NEVPT2, CIM, IAO-localization        
  Andreas Hansen         : Spin unrestricted coupled pair/coupled cluster methods 
  Ingolf Harden          : AUTO-CI MPn and infrastructure                
  Benjamin Helmich-Paris : MC-RPA, TRAH-(SCF,CASSCF), AVAS, COSX integrals, SCF dyn. polar., MC-PDFT, srDFT 
  Lee Huntington         : MR-EOM, pCC                                   
  Robert Izsak           : Overlap fitted RIJCOSX, COSX-SCS-MP3, EOM     
  Riya Kayal             : Wick's Theorem for AUTO-CI, AUTO-CI UHF-CCSDT 
  Emily Kempfer          : AUTO-CI RHF CISDT and CCSDT, approximate NEVPT4
  Christian Kollmar      : KDIIS, OOCD, Brueckner-CCSD(T), CCSD density, CASPT2, CASPT2-K, improved NEVPT2 
  Axel Koslowski         : Symmetry handling                             
  Simone Kossmann        : meta-GGA functionals, TD-DFT gradient, OOMP2, (MP2 Hessian; deprecated post 5.0) 
  Lucas Lang             : DCDCAS, Hyperfine gauge corrections, ICE-SOC+SSC
  Marvin Lechner         : AUTO-CI (C++ implementation), FIC-MRCC        
  Spencer Leger          : CASSCF response                               
  Dagmar Lenk            : GEPOL surface, SMD, ORCA-2-JSON               
  Dimitrios Liakos       : Extrapolation schemes; Compound Job, Property file
  Dimitrios Manganas     : Further ROCIS development; embedding schemes. LFT, Crystal Embedding 
  Dimitrios Pantazis     : SARC Basis sets                               
  Anastasios Papadopoulos: AUTO-CI, single reference methods and gradients 
  Taras Petrenko         : pre 6.0 DFT Hessian and TD-DFT gradient,  ECA, NRVS 
  Petra Pikulova         : Analytic Raman intensities                    
  Peter Pinski           : DLPNO-MP2, DLPNO-MP2 Gradient                 
  Shashank Vittal Rao    : ES-AILFT, MagRelax                            
  Christoph Reimann      : Effective Core Potentials                     
  Marius Retegan         : Local ZFS, SOC                                
  Christoph Riplinger    : Optimizer, TS searches, QM/MM, DLPNO-CCSD(T), (RO)-DLPNO pert. Triples 
  Michael Roemelt        : Original ROCIS implementation, recursive CI coupling coefficients
  Masaaki Saitow         : Open-shell DLPNO-CCSD energy and density      
  Barbara Sandhoefer     : DKH picture change effects                    
  Yorick L. A. Schmerwitz: GMF and freeze-and-release deltaSCF, NEB S-IDPP initial path                    
  Kantharuban Sivalingam : CASSCF convergence/infrastructure, NEVPT2, NEVPT3, NEVPT4(SD), FIC-MRCI and CEPA variants
  Bernardo de Souza      : ESD, SOC TD-DFT                               
  Georgi L. Stoychev     : AutoAux, RI-MP2 NMR, DLPNO-MP2 response, X2C  
  Van Anh Tran           : RI-MP2 g-tensors                              
  Willem Van den Heuvel  : Paramagnetic NMR                              
  Zikuan Wang            : NOTCH, Electric field optimization            
  Frank Wennmohs         : Technical directorship and infrastructure     
  Hang Xu                : AUTO-CI-Response properties                   
                                                                         
[FACCTs GmbH]                                                            
  Markus Bursch, Nicolas Foglia, Miquel Garcia-Rates, Ingolf Harden, Hagen Neugebauer, Anastasios Papadopoulos, 
  Christoph Riplinger, Bernardo de Souza, Georgi L. Stoychev                                                    
                                                                 
  APM, various basis sets, CI-OPT, improved COSX, DLPNO-Multilevel,           
  DOCKER, DRACO, updates on ESD, Fragmentator, GOAT, IRC, LR-CPCM, L-BFGS, MBIS, meta-GGA TD-DFT gradient, ML-optimized integration grids, 
  MM, NACMEs, nearIR, NEB, NEB-TS, NL-DFT gradient (VV10), 2- and 3-layer-ONIOM, interface openCOSMO-RS, QMMM,   
  Crystal-QMMM, RESP, rigid body optimization, SF, symmetry and pop. for TD-DFT, various functionals, SOLVATOR                                   
                                                                         
[Other institutions]                                                     
  V. Asgeirsson          : NEB                                           
  Christoph Bannwarth    : sTDA-DFT, sTD-DFT, PBEh-3c, B97-3c, D3        
  Giovanni Bistoni       : ETS/NOCV, ADLD/ADEX, COVALED                  
  Martin Brehm           : Molecular dynamics                            
  Ronald Cardenas        : ETS/NOCV                                      
  Martina Colucci        : COVALED                                       
  Sebastian Ehlert       : rSCAN, r2SCAN, r2SCAN-3c, D4, dhf basis sets  
  Marvin Friede          : D4 for Fr, Ra, Ac-Lr                          
  Lars Goerigk           : TD-DFT with DH, B97 family of functionals     
  Stefan Grimme          : VdW corrections, initial TS optimization, DFT functionals, gCP, sTDA/sTD-DF 
  Waldemar Hujo          : DFT-NL                                        
  H. Jonsson             : NEB                                           
  Holger Kruse           : gCP                                           
  Marcel Mueller         : wB97X-3c, vDZP basis set                      
  Hagen Neugebauer       : wr2SCAN, Native XTB                           
  Gianluca Regni         : ADLD/ADEX                                     
  Tobias Risthaus        : pre 6.0 range-separated hybrid DFT and stability analysis
  Lukas Wittmann         : regularized MP2, r2SCAN double-hybrids, wr2SCAN        
                                                                         
We gratefully acknowledge several colleagues who have allowed us to      
interface, adapt or use parts of their codes:                            
  Ed Valeev, F. Pavosevic, A. Kumar             : LibInt (2-el integral package), F12 methods 
  Garnet Chan, S. Sharma, J. Yang, R. Olivares  : DMRG                   
  Ulf Ekstrom                                   : XCFun DFT Library      
  Mihaly Kallay                                 : mrcc  (arbitrary order and MRCC methods)
  Frank Weinhold                                : gennbo (NPA and NBO analysis)           
  Simon Mueller                                 : openCOSMO-RS                            
  Christopher J. Cramer and Donald G. Truhlar   : smd solvation model                     
  S Lehtola, MJT Oliveira, MAL Marques          : LibXC Library                           
  Liviu Ungur et al                             : ANISO software                          


 Your calculation uses the libint2 library for the computation of 2-el integrals
 For citations please refer to: http://libint.valeyev.net

 Your ORCA version has been built with support for libXC version: 7.0.0
 For citations please refer to: https://libxc.gitlab.io

 This ORCA versions uses:
   CBLAS   interface :  Fast vector & matrix operations
   LAPACKE interface :  Fast linear algebra routines
   SCALAPACK package :  Parallel linear algebra routines
   Shared memory     :  Shared parallel matrices
   BLAS/LAPACK       :  OpenBLAS 0.3.29  USE64BITINT DYNAMIC_ARCH NO_AFFINITY Haswell SINGLE_THREADED
        Core in use  :  Haswell
   Copyright (c) 2011-2014, The OpenBLAS Project


  ***********************************
  * Starting time: Tue Sep  2 12:39:36 2025
  * Host name:     chemlab03
  * Process ID:    116964
  * Working dir.:  /home/vivek/mm-project/vivek/xtb-goat/MP2-opt/i/1
  ***********************************



***************************************
The coordinates will be read from file: /home/vivek/mm-project/vivek/xtb-goat/xtb-goat/i/I_CONF/1.xyz
***************************************


================================================================================

----- Orbital basis set information -----
Your calculation utilizes the basis: 6-31G**
   H-He, Li-Ne : W. J. Hehre, R. Ditchfield and J.A. Pople, J. Chem. Phys. 56, 2257 (1972).
                 Note: He and Ne are unpublished basis sets taken from the Gaussian program.
                 Note: Li and B from J. D. Dill and J. A. Pople, J. Chem. Phys. 62, 2921 (1975).
   Na - Ar     : M. M. Francl, W. J. Pietro, W. J. Hehre, J. S. Binkley, M. S. Gordon, 
                 D. J. DeFrees and J. A. Pople, J. Chem. Phys. 77, 3654 (1982).
   K - Zn      : V. A. Rassolov, J. A. Pople, M. A. Ratner, and T. L. Windus, J. Chem. Phys. 109, 1223 (1998).

================================================================================
                                        WARNINGS
                       Please study these warnings very carefully!
================================================================================


WARNING: The frozen-core approximation for MP2-gradient calculations is turned on by default.

WARNING: Geometry Optimization
  ===> : Switching off AutoStart
         For restart on a previous wavefunction, please use MOREAD

WARNING: Post HF methods need fully converged wavefunctions
  ===> : Setting SCFConvForced true
         You can overwrite this default with %scf ConvForced false 


================================================================================
                                       INPUT FILE
================================================================================
NAME = 1.inp
|  1> ! MP2 6-31G** opt
|  2> 
|  3> * xyzfile 0 1 /home/vivek/mm-project/vivek/xtb-goat/xtb-goat/i/I_CONF/1.xyz
|  4> 
|  5>                          ****END OF INPUT****
================================================================================

                       *****************************
                       * Geometry Optimization Run *
                       *****************************

Geometry optimization settings:
Update method            Update   .... BFGS
Choice of coordinates    CoordSys .... (2022) Redundant Internals
Initial Hessian          InHess   .... Almloef's Model
Max. no of cycles        MaxIter  .... 66

Convergence Tolerances:
Energy Change            TolE     ....  5.0000e-06 Eh
Max. Gradient            TolMAXG  ....  3.0000e-04 Eh/bohr
RMS Gradient             TolRMSG  ....  1.0000e-04 Eh/bohr
Max. Displacement        TolMAXD  ....  4.0000e-03 bohr
RMS Displacement         TolRMSD  ....  2.0000e-03 bohr
Strict Convergence                .... False

------------------------------------------------------------------------------
                        ORCA OPTIMIZATION COORDINATE SETUP
------------------------------------------------------------------------------

The optimization will be done in redundant internal coordinates (2022)
Making redundant internal coordinates   ...  (2022 redundants) done
Evaluating the initial hessian          ...  (Almloef) done
Evaluating the coordinates              ...  done
Calculating the B-matrix                .... done
Calculating the G-matrix                .... done
The number of degrees of freedom        ....   94

    -----------------------------------------------------------------
                    Redundant Internal Coordinates


    -----------------------------------------------------------------
         Definition                    Initial Value    Approx d2E/dq
    -----------------------------------------------------------------
      1. B(C   1,C   0)                  1.5238         0.382211   
      2. B(C   2,C   0)                  1.5322         0.370538   
      3. B(C   5,C   2)                  1.5456         0.352815   
      4. B(C   7,C   2)                  1.5259         0.379245   
      5. B(C   8,C   5)                  1.5216         0.385218   
      6. B(H   9,C   7)                  1.0877         0.363132   
      7. B(N  10,H   3)                  1.0145         0.425590   
      8. B(N  10,C   5)                  1.4536         0.442923   
      9. B(N  10,H   4)                  1.0160         0.423282   
     10. B(O  11,C   8)                  1.3376         0.678273   
     11. B(O  11,H   6)                  0.9713         0.498787   
     12. B(H  12,C   1)                  1.0873         0.363705   
     13. B(O  13,C   8)                  1.2039         1.108832   
     14. B(H  14,C   2)                  1.0955         0.352953   
     15. B(H  15,C   7)                  1.0880         0.362796   
     16. B(H  16,C   7)                  1.0864         0.364905   
     17. B(H  17,C   5)                  1.0943         0.354471   
     18. B(H  18,C   0)                  1.0905         0.359473   
     19. B(H  19,C   0)                  1.0919         0.357572   
     20. B(H  20,C   1)                  1.0874         0.363543   
     21. B(H  21,C   1)                  1.0876         0.363258   
     22. A(H  18,C   0,H  19)          108.0499         0.290438   
     23. A(C   1,C   0,C   2)          112.9899         0.364265   
     24. A(C   1,C   0,H  19)          109.6432         0.325162   
     25. A(C   2,C   0,H  18)          107.9111         0.323792   
     26. A(C   2,C   0,H  19)          108.9956         0.323510   
     27. A(C   1,C   0,H  18)          109.1218         0.325446   
     28. A(C   0,C   1,H  20)          110.0680         0.326049   
     29. A(H  20,C   1,H  21)          108.2947         0.291675   
     30. A(C   0,C   1,H  12)          111.4716         0.326073   
     31. A(H  12,C   1,H  20)          108.0284         0.291731   
     32. A(H  12,C   1,H  21)          108.3902         0.291695   
     33. A(C   0,C   1,H  21)          110.4911         0.326007   
     34. A(C   0,C   2,C   7)          111.8419         0.363780   
     35. A(C   0,C   2,C   5)          109.0237         0.359324   
     36. A(C   5,C   2,H  14)          107.2427         0.320242   
     37. A(C   0,C   2,H  14)          108.7290         0.322821   
     38. A(C   5,C   2,C   7)          110.7659         0.360749   
     39. A(C   7,C   2,H  14)          109.1086         0.324054   
     40. A(C   8,C   5,H  17)          108.6378         0.325116   
     41. A(C   2,C   5,H  17)          109.3180         0.320466   
     42. A(N  10,C   5,H  17)          108.9162         0.330689   
     43. A(C   2,C   5,C   8)          109.4907         0.361712   
     44. A(C   8,C   5,N  10)          110.9482         0.373756   
     45. A(C   2,C   5,N  10)          109.5031         0.368149   
     46. A(C   2,C   7,H   9)          111.1007         0.325571   
     47. A(H  15,C   7,H  16)          108.5953         0.291788   
     48. A(H   9,C   7,H  16)          107.8916         0.291830   
     49. A(C   2,C   7,H  16)          110.2775         0.325832   
     50. A(H   9,C   7,H  15)          108.4136         0.291565   
     51. A(C   2,C   7,H  15)          110.4768         0.325521   
     52. A(C   5,C   8,O  13)          124.4306         0.439491   
     53. A(C   5,C   8,O  11)          112.9283         0.402591   
     54. A(O  11,C   8,O  13)          122.6144         0.484093   
     55. A(H   3,N  10,H   4)          107.4639         0.301393   
     56. A(H   4,N  10,C   5)          109.0743         0.337660   
     57. A(H   3,N  10,C   5)          110.4693         0.337966   
     58. A(H   6,O  11,C   8)          110.6833         0.373204   
     59. D(H  20,C   1,C   0,H  19)     60.7009         0.011636   
     60. D(H  12,C   1,C   0,H  18)   -177.3122         0.011636   
     61. D(H  12,C   1,C   0,H  19)    -59.1510         0.011636   
     62. D(H  12,C   1,C   0,C   2)     62.6427         0.011636   
     63. D(H  20,C   1,C   0,H  18)    -57.4604         0.011636   
     64. D(H  20,C   1,C   0,C   2)   -177.5054         0.011636   
     65. D(C   5,C   2,C   0,C   1)    161.9757         0.010974   
     66. D(C   7,C   2,C   0,H  19)     46.9690         0.010974   
     67. D(C   7,C   2,C   0,H  18)    164.0752         0.010974   
     68. D(C   7,C   2,C   0,C   1)    -75.1883         0.010974   
     69. D(C   5,C   2,C   0,H  18)     41.2392         0.010974   
     70. D(C   5,C   2,C   0,H  19)    -75.8670         0.010974   
     71. D(C   8,C   5,C   2,H  14)    -64.5851         0.010016   
     72. D(C   8,C   5,C   2,C   7)     54.3792         0.010016   
     73. D(C   8,C   5,C   2,C   0)    177.8575         0.010016   
     74. D(N  10,C   5,C   2,H  14)     57.2650         0.010016   
     75. D(N  10,C   5,C   2,C   7)    176.2293         0.010016   
     76. D(N  10,C   5,C   2,C   0)    -60.2924         0.010016   
     77. D(H  15,C   7,C   2,H  14)    172.7576         0.011465   
     78. D(H  15,C   7,C   2,C   5)     54.9264         0.011465   
     79. D(H  15,C   7,C   2,C   0)    -66.9137         0.011465   
     80. D(H   9,C   7,C   2,H  14)     52.3924         0.011465   
     81. D(H   9,C   7,C   2,C   5)    -65.4388         0.011465   
     82. D(H   9,C   7,C   2,C   0)    172.7211         0.011465   
     83. D(O  13,C   8,C   5,N  10)    -41.6283         0.011055   
     84. D(O  13,C   8,C   5,C   2)     79.3501         0.011055   
     85. D(O  11,C   8,C   5,H  17)     16.8312         0.011055   
     86. D(O  11,C   8,C   5,N  10)    136.5310         0.011055   
     87. D(O  11,C   8,C   5,C   2)   -102.4906         0.011055   
     88. D(H   3,N  10,C   5,C   8)    -62.4549         0.016730   
     89. D(H   3,N  10,C   5,C   2)    176.5741         0.016730   
     90. D(H   4,N  10,C   5,C   8)     55.4503         0.016730   
     91. D(H   4,N  10,C   5,C   2)    -65.5207         0.016730   
     92. D(H   3,N  10,C   5,H  17)     57.0785         0.016730   
     93. D(H   6,O  11,C   8,O  13)     -1.7464         0.034250   
     94. D(H   6,O  11,C   8,C   5)   -179.9439         0.034250   
    -----------------------------------------------------------------

Number of atoms                         .... 22
Number of degrees of freedom            .... 94


         *************************************************************
         *                GEOMETRY OPTIMIZATION CYCLE   1            *
         *************************************************************
---------------------------------
CARTESIAN COORDINATES (ANGSTROEM)
---------------------------------
  C     -9.192765    5.277693   -0.936155
  C    -10.691430    5.115997   -0.713088
  C     -8.351633    4.376238   -0.026443
  H     -6.069370    3.647361   -2.361680
  H     -7.326323    2.721556   -1.868627
  C     -6.925588    4.260574   -0.611066
  H     -4.703432    3.564210    1.643420
  C     -8.308097    4.898225    1.406737
  C     -6.065652    3.410356    0.312538
  H     -7.817785    4.187067    2.067779
  N     -6.992184    3.678276   -1.941324
  O     -5.236032    4.138037    1.068517
  H    -10.977033    5.404158    0.295669
  O     -6.089691    2.207294    0.348851
  H     -8.786090    3.370620   -0.028791
  H     -7.765703    5.840246    1.452387
  H     -9.315703    5.060229    1.779206
  H     -6.481544    5.258179   -0.682324
  H     -8.956206    5.024920   -1.970215
  H     -8.906812    6.318044   -0.768267
  H    -11.242235    5.742407   -1.410715
  H    -10.990774    4.082599   -0.872482

----------------------------
CARTESIAN COORDINATES (A.U.)
----------------------------
  NO LB      ZA    FRAG     MASS         X           Y           Z
   0 C     6.0000    0    12.011  -17.371809    9.973395   -1.769077
   1 C     6.0000    0    12.011  -20.203875    9.667833   -1.347540
   2 C     6.0000    0    12.011  -15.782299    8.269891   -0.049969
   3 H     1.0000    0     1.008  -11.469448    6.892514   -4.462928
   4 H     1.0000    0     1.008  -13.844745    5.142995   -3.531194
   5 C     6.0000    0    12.011  -13.087465    8.051318   -1.154747
   6 H     1.0000    0     1.008   -8.888199    6.735382    3.105613
   7 C     6.0000    0    12.011  -15.700029    9.256305    2.658347
   8 C     6.0000    0    12.011  -11.462421    6.444638    0.590612
   9 H     1.0000    0     1.008  -14.773472    7.912411    3.907535
  10 N     7.0000    0    14.007  -13.213313    6.950934   -3.668571
  11 O     8.0000    0    15.999   -9.894666    7.819757    2.019205
  12 H     1.0000    0     1.008  -20.743587   10.212379    0.558734
  13 O     8.0000    0    15.999  -11.507847    4.171180    0.659234
  14 H     1.0000    0     1.008  -16.603304    6.369548   -0.054407
  15 H     1.0000    0     1.008  -14.675053   11.036466    2.744614
  16 H     1.0000    0     1.008  -17.604127    9.562447    3.362212
  17 H     1.0000    0     1.008  -12.248343    9.936518   -1.289405
  18 H     1.0000    0     1.008  -16.924776    9.495722   -3.723166
  19 H     1.0000    0     1.008  -16.831435   11.939372   -1.451814
  20 H     1.0000    0     1.008  -21.244745   10.851577   -2.665866
  21 H     1.0000    0     1.008  -20.769552    7.714995   -1.648753

--------------------------------
INTERNAL COORDINATES (ANGSTROEM)
--------------------------------
 C      0   0   0     0.000000000000     0.00000000     0.00000000
 C      1   0   0     1.523778417862     0.00000000     0.00000000
 C      1   2   0     1.532221669143   112.98985212     0.00000000
 H      3   1   2     3.345641708252    95.06233542   141.28741470
 H      4   3   1     1.637115755537    52.35501557   259.48556839
 C      3   1   2     1.545563453341   109.02369383   161.97569880
 H      6   3   1     3.241234877084   112.67773024   154.92153355
 C      3   1   2     1.525899336254   111.84192814   284.81167545
 C      6   3   1     1.521645735398   109.49067912   177.85749882
 H      8   3   1     1.087717302169   111.10067742   172.72114937
 N      4   3   1     1.014514908985    23.60227034   298.51740418
 O      7   6   3     0.971314448787    23.85898822   265.95188854
 H      2   1   3     1.087288550039   111.47160458    62.64271315
 O      9   6   3     1.203850195834   124.43060752    79.35006745
 H      3   1   2     1.095457280647   108.72898846    45.36184890
 H      8   3   1     1.087969786331   110.47683532   293.08631437
 H      8   3   1     1.086391887437   110.27746404    53.14223259
 H      6   3   1     1.094288952952   109.31802948    58.95577104
 H      1   2   3     1.090474083297   109.12181914   120.04507204
 H      1   2   3     1.091917829129   109.64318294   238.20630949
 H      2   1   3     1.087409888512   110.06800422   182.49455104
 H      2   1   3     1.087622976705   110.49111772   302.05160917

---------------------------
INTERNAL COORDINATES (A.U.)
---------------------------
 C      0   0   0     0.000000000000     0.00000000     0.00000000
 C      1   0   0     2.879523898538     0.00000000     0.00000000
 C      1   2   0     2.895479331140   112.98985212     0.00000000
 H      3   1   2     6.322346570821    95.06233542   141.28741470
 H      4   3   1     3.093700427492    52.35501557   259.48556839
 C      3   1   2     2.920691649412   109.02369383   161.97569880
 H      6   3   1     6.125046253403   112.67773024   154.92153355
 C      3   1   2     2.883531853452   111.84192814   284.81167545
 C      6   3   1     2.875493712751   109.49067912   177.85749882
 H      8   3   1     2.055487812227   111.10067742   172.72114937
 N      4   3   1     1.917155336762    23.60227034   298.51740418
 O      7   6   3     1.835518298128    23.85898822   265.95188854
 H      2   1   3     2.054677588122   111.47160458    62.64271315
 O      9   6   3     2.274947176394   124.43060752    79.35006745
 H      3   1   2     2.070114251833   108.72898846    45.36184890
 H      8   3   1     2.055964938146   110.47683532   293.08631437
 H      8   3   1     2.052983141370   110.27746404    53.14223259
 H      6   3   1     2.067906432454   109.31802948    58.95577104
 H      1   2   3     2.060697373571   109.12181914   120.04507204
 H      1   2   3     2.063425657800   109.64318294   238.20630949
 H      2   1   3     2.054906884605   110.06800422   182.49455104
 H      2   1   3     2.055309562933   110.49111772   302.05160917

---------------------
BASIS SET INFORMATION
---------------------
There are 4 groups of distinct atoms

 Group   1 Type C   : 10s4p1d contracted to 3s2p1d pattern {631/31/1}
 Group   2 Type H   : 4s1p contracted to 2s1p pattern {31/1}
 Group   3 Type N   : 10s4p1d contracted to 3s2p1d pattern {631/31/1}
 Group   4 Type O   : 10s4p1d contracted to 3s2p1d pattern {631/31/1}

Atom   0C    basis set group =>   1
Atom   1C    basis set group =>   1
Atom   2C    basis set group =>   1
Atom   3H    basis set group =>   2
Atom   4H    basis set group =>   2
Atom   5C    basis set group =>   1
Atom   6H    basis set group =>   2
Atom   7C    basis set group =>   1
Atom   8C    basis set group =>   1
Atom   9H    basis set group =>   2
Atom  10N    basis set group =>   3
Atom  11O    basis set group =>   4
Atom  12H    basis set group =>   2
Atom  13O    basis set group =>   4
Atom  14H    basis set group =>   2
Atom  15H    basis set group =>   2
Atom  16H    basis set group =>   2
Atom  17H    basis set group =>   2
Atom  18H    basis set group =>   2
Atom  19H    basis set group =>   2
Atom  20H    basis set group =>   2
Atom  21H    basis set group =>   2
------------------------------------------------------------------------------
                             ORCA STARTUP CALCULATIONS
------------------------------------------------------------------------------
------------------------------------------------------------------------------
                   ___                                                        
                  /   \      - P O W E R E D   B Y -                         
                 /     \                                                     
                 |  |  |   _    _      __       _____    __    __             
                 |  |  |  | |  | |    /  \     |  _  \  |  |  /  |          
                  \  \/   | |  | |   /    \    | | | |  |  | /  /          
                 / \  \   | |__| |  /  /\  \   | |_| |  |  |/  /          
                |  |  |   |  __  | /  /__\  \  |    /   |      \           
                |  |  |   | |  | | |   __   |  |    \   |  |\   \          
                \     /   | |  | | |  |  |  |  | |\  \  |  | \   \       
                 \___/    |_|  |_| |__|  |__|  |_| \__\ |__|  \__/        
                                                                              
                      - O R C A' S   B I G   F R I E N D -                    
                                      &                                       
                       - I N T E G R A L  F E E D E R -                       
                                                                              
 v1 FN, 2020, v2 2021, v3 2022-2024                                           
------------------------------------------------------------------------------


----------------------
SHARK INTEGRAL PACKAGE
----------------------

Number of atoms                             ...     22
Number of basis functions                   ...    191
Number of shells                            ...     93
Maximum angular momentum                    ...      2
Integral batch strategy                     ... SHARK/LIBINT Hybrid
RI-J (if used) integral strategy            ... SPLIT-RIJ (Revised 2003 algorithm where possible)
Printlevel                                  ...      1
Contraction scheme used                     ... SEGMENTED contraction
Prescreening option                         ... SCHWARTZ
   Thresh                                   ... 2.500e-11
   Tcut                                     ... 2.500e-12
   Tpresel                                  ... 2.500e-12 
Coulomb Range Separation                    ... NOT USED
Exchange Range Separation                   ... NOT USED
Multipole approximations                    ... NOT USED
Finite Nucleus Model                        ... NOT USED
CABS basis                                  ... NOT available
Auxiliary Coulomb fitting basis             ... NOT available
Auxiliary J/K fitting basis                 ... NOT available
Auxiliary Correlation fitting basis         ... NOT available
Auxiliary 'external' fitting basis          ... NOT available

Checking pre-screening integrals            ... done (  0.0 sec) Dimension = 93
   => SHARK Basis and OBASIS are compatible. Storing Pre-screening
Shell pair information
Shell pair cut-off parameter TPreSel        ...   2.5e-12
Total number of shell pairs                 ...      4371
Shell pairs after pre-screening             ...      3929
Total number of primitive shell pairs       ...     20328
Primitive shell pairs kept                  ...     12221
          la=0 lb=0:   1296 shell pairs
          la=1 lb=0:   1467 shell pairs
          la=1 lb=1:    439 shell pairs
          la=2 lb=0:    434 shell pairs
          la=2 lb=1:    251 shell pairs
          la=2 lb=2:     42 shell pairs

Checking whether 4 symmetric matrices of dimension 191 fit in memory
:Max Core in MB      =   4096.00
 MB in use           =      6.45
 MB left             =   4089.55
 MB needed           =      0.56
 Data fit in memory  = YES
Calculating Nuclear repulsion               ... done (  0.0 sec) ENN=    490.495789961546 Eh

Diagonalization of the overlap matrix:
Smallest eigenvalue                        ... 2.614e-03
Time for diagonalization                   ...    0.002 sec
Threshold for overlap eigenvalues          ... 1.000e-07
Number of eigenvalues below threshold      ... 0
Time for construction of square roots      ...    0.001 sec
Total time needed                          ...    0.003 sec

-------------------
DFT GRID GENERATION
-------------------

General Integration Accuracy     IntAcc      ... 4.388
Radial Grid Type                 RadialGrid  ... OptM3 with GC (2021)
Angular Grid (max. ang.)         AngularGrid ... 4 (Lebedev-302)
Angular grid pruning method      GridPruning ... 4 (adaptive)
Weight generation scheme         WeightScheme... mBecke (2022)
Basis function cutoff            BFCut       ... 1.0000e-11
Integration weight cutoff        WCut        ... 1.0000e-14
Partially contracted basis set               ... off
Rotationally invariant grid construction     ... off
Angular grids for H and He will be reduced by one unit

Total number of grid points                  ...    95578
Total number of batches                      ...     1506
Average number of points per batch           ...       63
Average number of grid points per atom       ...     4344
Grids setup in   0.4 sec
Initializing property integral containers    ... done (  0.0 sec)

SHARK setup successfully completed in   0.4 seconds

Maximum memory used throughout the entire STARTUP-calculation: 38.4 MB
-------------------------------------------------------------------------------
                                 ORCA GUESS
                   Start orbitals & Density for SCF / CASSCF
-------------------------------------------------------------------------------

------------
SCF SETTINGS
------------
Hamiltonian:
 Ab initio Hamiltonian  Method          .... Hartree-Fock(GTOs)


General Settings:
 Integral files         IntName         .... 1
 Hartree-Fock type      HFTyp           .... RHF
 Total Charge           Charge          ....    0
 Multiplicity           Mult            ....    1
 Number of Electrons    NEL             ....   72
 Basis Dimension        Dim             ....  191
 Nuclear Repulsion      ENuc            ....    490.4957899615 Eh

Convergence Acceleration:
 AO-DIIS                CNVDIIS         .... on
   Start iteration      DIISMaxIt       ....    12
   Startup error        DIISStart       ....  0.200000
   # of expansion vecs  DIISMaxEq       ....     5
   Bias factor          DIISBfac        ....   1.050
   Max. coefficient     DIISMaxC        ....  10.000
 MO-DIIS                CNVKDIIS        .... off
 Trust-Rad. Augm. Hess. CNVTRAH         .... auto
   Auto Start mean grad. ratio tolernc. ....  1.125000
   Auto Start start iteration           ....    50
   Auto Start num. interpolation iter.  ....    10
   Max. Number of Micro iterations      ....    24
   Max. Number of Macro iterations      .... Maxiter - #DIIS iter
   Number of Davidson start vectors     ....     2
   Converg. threshold    (grad. norm)   ....   1.000e-05
   Grad. Scal. Fac. for Micro threshold ....   0.100
   Minimum threshold for Micro iter.    ....   1.000e-02
   NR start threshold (gradient norm)   ....   1.000e-04
   Initial trust radius                 ....   0.400
   Minimum AH scaling param. (alpha)    ....   1.000
   Maximum AH scaling param. (alpha)    .... 1000.000
   Quad. conv. algorithm                .... NR
   White noise on init. David. guess    .... on
   Maximum white noise                  ....   0.010
   Pseudo random numbers                .... off
   Inactive MOs                         .... canonical
   Orbital update algorithm             .... Taylor
   Preconditioner                       .... Diag
   Full preconditioner red. dimension   ....   250
 SOSCF                 CNVSOSCF           .... on
   Start iteration     SOSCFMaxIt         ....   150
   Startup grad/error  SOSCFStart         ....  0.003300
   Hessian update      SOSCFHessUp        .... L-BFGS
   Autom. constraints  SOSCFAutoConstrain .... off
 Level Shifting         CNVShift        .... on
   Level shift para.    LevelShift      ....    0.2500
   Turn off err/grad.   ShiftErr        ....    0.0010
 Zerner damping         CNVZerner       .... off
 Static damping         CNVDamp         .... on
   Fraction old density DampFac         ....    0.7000
   Max. Damping (<1)    DampMax         ....    0.9800
   Min. Damping (>=0)   DampMin         ....    0.0000
   Turn off err/grad.   DampErr         ....    0.1000

SCF Procedure:
 Maximum # iterations   MaxIter         ....   125
 SCF integral mode      SCFMode         .... Direct
   Integral package                     .... SHARK and LIBINT hybrid scheme
 Reset frequency        DirectResetFreq ....    20
 Integral Threshold     Thresh          ....  2.500e-11 Eh
 Primitive CutOff       TCut            ....  2.500e-12 Eh

Convergence Tolerance:
 Convergence Check Mode ConvCheckMode   .... Total+1el-Energy
 Convergence forced     ConvForced      .... 1
 Energy Change          TolE            ....  1.000e-08 Eh
 1-El. energy change                    ....  1.000e-05 Eh
 Orbital Gradient       TolG            ....  1.000e-05
 Orbital Rotation angle TolX            ....  1.000e-05
 DIIS Error             TolErr          ....  5.000e-07

------------------------------
INITIAL GUESS: MODEL POTENTIAL
------------------------------
Loading Hartree-Fock densities                     ... done
Calculating cut-offs                               ... done
Initializing the effective Hamiltonian             ... done
Setting up the integral package (SHARK)            ... done
Starting the Coulomb interaction                   ... done (   0.1 sec)
Making the grid                                    ... done (   0.1 sec)
Mapping shells                                     ... done
Starting the XC term evaluation                    ... done (   0.0 sec)
Transforming the Hamiltonian                       ... done (   0.0 sec)
Diagonalizing the Hamiltonian                      ... done (   0.0 sec)
Back transforming the eigenvectors                 ... done (   0.0 sec)
Now organizing SCF variables                       ... done
                      ------------------
                      INITIAL GUESS DONE (   0.2 sec)
                      ------------------
             **** ENERGY FILE WAS UPDATED (1.en.tmp) ****
Finished Guess after   0.2 sec
Maximum memory used throughout the entire GUESS-calculation: 11.7 MB

-------------------------------------------------------------------------------------------
                                      ORCA LEAN-SCF
                              memory conserving SCF solver
-------------------------------------------------------------------------------------------

----------------------------------------D-I-I-S--------------------------------------------
Iteration    Energy (Eh)           Delta-E    RMSDP     MaxDP     DIISErr   Damp  Time(sec)
-------------------------------------------------------------------------------------------
               ***  Starting incremental Fock matrix formation  ***
    1    -438.5393695097559430     0.00e+00  2.48e-03  6.33e-02  2.50e-01  0.700   2.0
    2    -438.7025956386180496    -1.63e-01  1.88e-03  4.57e-02  1.56e-01  0.700   1.9
                               ***Turning on AO-DIIS***
    3    -438.7983900109485376    -9.58e-02  1.02e-03  2.28e-02  8.78e-02  0.700   1.9
    4    -438.8585229568658406    -6.01e-02  2.31e-03  4.79e-02  5.93e-02  0.000   1.8
    5    -438.9912663865355853    -1.33e-01  2.73e-04  4.72e-03  5.17e-03  0.000   1.9
                              *** Initializing SOSCF ***
---------------------------------------S-O-S-C-F--------------------------------------
Iteration    Energy (Eh)           Delta-E    RMSDP     MaxDP     MaxGrad    Time(sec)
--------------------------------------------------------------------------------------
    6    -438.9917658464296437    -4.99e-04  1.32e-04  2.35e-03  2.26e-03     1.8
               *** Restarting incremental Fock matrix formation ***
    7    -438.9918760468572145    -1.10e-04  7.74e-05  1.69e-03  1.40e-03     2.0
    8    -438.9919072111197238    -3.12e-05  7.45e-05  1.79e-03  4.25e-04     1.6
    9    -438.9919180072415656    -1.08e-05  1.30e-05  2.24e-04  2.08e-04     1.6
   10    -438.9919187501592432    -7.43e-07  7.81e-06  1.63e-04  6.10e-05     1.5
   11    -438.9919188916476287    -1.41e-07  1.79e-06  5.39e-05  1.69e-05     1.5
   12    -438.9919189044912855    -1.28e-08  4.83e-07  1.40e-05  5.44e-06     1.3
   13    -438.9919189063658678    -1.87e-09  1.77e-07  4.96e-06  1.35e-06     1.1
                 **** Energy Check signals convergence ****

               *****************************************************
               *                     SUCCESS                       *
               *           SCF CONVERGED AFTER  13 CYCLES          *
               *****************************************************

             **** ENERGY FILE WAS UPDATED (1.en.tmp) ****

----------------
TOTAL SCF ENERGY
----------------

Total Energy       :       -438.99191890857082 Eh          -11945.57741 eV

Components:
Nuclear Repulsion  :        490.49578996154617 Eh           13347.06900 eV
Electronic Energy  :       -929.48770887011699 Eh          -25292.64641 eV
One Electron Energy:      -1571.59481296983176 Eh          -42765.26901 eV
Two Electron Energy:        642.10710409971477 Eh           17472.62259 eV

Virial components:
Potential Energy   :       -877.61811999825727 Eh          -23881.20314 eV
Kinetic Energy     :        438.62620108968639 Eh           11935.62573 eV
Virial Ratio       :          2.00083378014805

---------------
SCF CONVERGENCE
---------------

  Last Energy change         ...    1.8746e-09  Tolerance :   1.0000e-08
  Last MAX-Density change    ...    4.9568e-06  Tolerance :   1.0000e-07
  Last RMS-Density change    ...    1.7735e-07  Tolerance :   5.0000e-09
  Last DIIS Error            ...    2.2611e-03  Tolerance :   5.0000e-07
  Last Orbital Gradient      ...    1.3478e-06  Tolerance :   1.0000e-05
  Last Orbital Rotation      ...    2.7340e-06  Tolerance :   1.0000e-05


----------------
ORBITAL ENERGIES
----------------

  NO   OCC          E(Eh)            E(eV) 
   0   2.0000     -20.618273      -561.0517 
   1   2.0000     -20.552763      -559.2691 
   2   2.0000     -15.549969      -423.1362 
   3   2.0000     -11.381729      -309.7126 
   4   2.0000     -11.269888      -306.6692 
   5   2.0000     -11.232047      -305.6395 
   6   2.0000     -11.214914      -305.1733 
   7   2.0000     -11.209463      -305.0250 
   8   2.0000     -11.207863      -304.9815 
   9   2.0000      -1.468316       -39.9549 
  10   2.0000      -1.361466       -37.0474 
  11   2.0000      -1.200465       -32.6663 
  12   2.0000      -1.084833       -29.5198 
  13   2.0000      -0.998525       -27.1713 
  14   2.0000      -0.943965       -25.6866 
  15   2.0000      -0.881040       -23.9743 
  16   2.0000      -0.812787       -22.1171 
  17   2.0000      -0.770310       -20.9612 
  18   2.0000      -0.706023       -19.2119 
  19   2.0000      -0.694915       -18.9096 
  20   2.0000      -0.664911       -18.0932 
  21   2.0000      -0.643056       -17.4984 
  22   2.0000      -0.627362       -17.0714 
  23   2.0000      -0.599773       -16.3206 
  24   2.0000      -0.594578       -16.1793 
  25   2.0000      -0.576096       -15.6764 
  26   2.0000      -0.547376       -14.8948 
  27   2.0000      -0.535678       -14.5765 
  28   2.0000      -0.519770       -14.1437 
  29   2.0000      -0.504713       -13.7339 
  30   2.0000      -0.486864       -13.2482 
  31   2.0000      -0.469649       -12.7798 
  32   2.0000      -0.464331       -12.6351 
  33   2.0000      -0.457391       -12.4462 
  34   2.0000      -0.444287       -12.0897 
  35   2.0000      -0.394917       -10.7462 
  36   0.0000       0.183013         4.9800 
  37   0.0000       0.217927         5.9301 
  38   0.0000       0.236634         6.4391 
  39   0.0000       0.246285         6.7018 
  40   0.0000       0.253109         6.8874 
  41   0.0000       0.287657         7.8275 
  42   0.0000       0.296787         8.0760 
  43   0.0000       0.313994         8.5442 
  44   0.0000       0.319543         8.6952 
  45   0.0000       0.320424         8.7192 
  46   0.0000       0.334028         9.0894 
*Only the first 10 virtual orbitals were printed.

                    ********************************
                    * MULLIKEN POPULATION ANALYSIS *
                    ********************************

-----------------------
MULLIKEN ATOMIC CHARGES
-----------------------
   0 C :   -0.216950
   1 C :   -0.331494
   2 C :   -0.138605
   3 H :    0.273200
   4 H :    0.285738
   5 C :   -0.010812
   6 H :    0.369620
   7 C :   -0.330414
   8 C :    0.786322
   9 H :    0.118083
  10 N :   -0.687299
  11 O :   -0.637003
  12 H :    0.105429
  13 O :   -0.594913
  14 H :    0.126893
  15 H :    0.119680
  16 H :    0.120716
  17 H :    0.155463
  18 H :    0.159295
  19 H :    0.101713
  20 H :    0.114934
  21 H :    0.110404
Sum of atomic charges:    0.0000000

--------------------------------
MULLIKEN REDUCED ORBITAL CHARGES
--------------------------------
  0 C s       :     3.236859  s :     3.236859
      pz      :     1.038933  p :     2.931412
      px      :     0.902559
      py      :     0.989920
      dz2     :     0.013196  d :     0.048679
      dxz     :     0.007768
      dyz     :     0.005973
      dx2y2   :     0.013649
      dxy     :     0.008094

  1 C s       :     3.252325  s :     3.252325
      pz      :     1.045168  p :     3.036784
      px      :     0.942906
      py      :     1.048710
      dz2     :     0.010487  d :     0.042385
      dxz     :     0.007581
      dyz     :     0.005959
      dx2y2   :     0.011264
      dxy     :     0.007093

  2 C s       :     3.234191  s :     3.234191
      pz      :     0.917657  p :     2.849564
      px      :     0.903278
      py      :     1.028628
      dz2     :     0.014109  d :     0.054850
      dxz     :     0.010146
      dyz     :     0.008665
      dx2y2   :     0.012243
      dxy     :     0.009686

  3 H s       :     0.700692  s :     0.700692
      pz      :     0.007647  p :     0.026107
      px      :     0.013620
      py      :     0.004839

  4 H s       :     0.688195  s :     0.688195
      pz      :     0.004459  p :     0.026067
      px      :     0.006880
      py      :     0.014727

  5 C s       :     3.186812  s :     3.186812
      pz      :     0.775520  p :     2.754093
      px      :     0.995118
      py      :     0.983455
      dz2     :     0.017101  d :     0.069908
      dxz     :     0.015925
      dyz     :     0.015614
      dx2y2   :     0.009516
      dxy     :     0.011752

  6 H s       :     0.589033  s :     0.589033
      pz      :     0.014708  p :     0.041347
      px      :     0.013584
      py      :     0.013055

  7 C s       :     3.247644  s :     3.247644
      pz      :     0.938928  p :     3.040783
      px      :     1.064890
      py      :     1.036965
      dz2     :     0.010207  d :     0.041987
      dxz     :     0.006973
      dyz     :     0.008773
      dx2y2   :     0.007393
      dxy     :     0.008641

  8 C s       :     2.963589  s :     2.963589
      pz      :     0.689419  p :     2.104001
      px      :     0.671960
      py      :     0.742622
      dz2     :     0.015490  d :     0.146089
      dxz     :     0.011651
      dyz     :     0.045704
      dx2y2   :     0.027498
      dxy     :     0.045745

  9 H s       :     0.869186  s :     0.869186
      pz      :     0.004650  p :     0.012731
      px      :     0.003286
      py      :     0.004795

 10 N s       :     3.607589  s :     3.607589
      pz      :     1.297094  p :     4.045119
      px      :     1.400739
      py      :     1.347286
      dz2     :     0.011433  d :     0.034591
      dxz     :     0.004864
      dyz     :     0.003960
      dx2y2   :     0.012320
      dxy     :     0.002014

 11 O s       :     3.838397  s :     3.838397
      pz      :     1.560288  p :     4.773158
      px      :     1.552273
      py      :     1.660597
      dz2     :     0.001847  d :     0.025448
      dxz     :     0.002742
      dyz     :     0.008968
      dx2y2   :     0.002873
      dxy     :     0.009017

 12 H s       :     0.881881  s :     0.881881
      pz      :     0.007951  p :     0.012689
      px      :     0.002358
      py      :     0.002380

 13 O s       :     3.875763  s :     3.875763
      pz      :     1.657878  p :     4.686557
      px      :     1.663608
      py      :     1.365071
      dz2     :     0.003167  d :     0.032594
      dxz     :     0.000068
      dyz     :     0.010073
      dx2y2   :     0.009259
      dxy     :     0.010026

 14 H s       :     0.860926  s :     0.860926
      pz      :     0.001615  p :     0.012181
      px      :     0.002706
      py      :     0.007860

 15 H s       :     0.867724  s :     0.867724
      pz      :     0.001776  p :     0.012596
      px      :     0.003614
      py      :     0.007206

 16 H s       :     0.866467  s :     0.866467
      pz      :     0.002727  p :     0.012817
      px      :     0.008048
      py      :     0.002042

 17 H s       :     0.832569  s :     0.832569
      pz      :     0.001034  p :     0.011968
      px      :     0.002782
      py      :     0.008151

 18 H s       :     0.827557  s :     0.827557
      pz      :     0.008627  p :     0.013148
      px      :     0.002280
      py      :     0.002241

 19 H s       :     0.885908  s :     0.885908
      pz      :     0.001890  p :     0.012379
      px      :     0.002190
      py      :     0.008299

 20 H s       :     0.872350  s :     0.872350
      pz      :     0.004819  p :     0.012717
      px      :     0.003683
      py      :     0.004215

 21 H s       :     0.876955  s :     0.876955
      pz      :     0.002025  p :     0.012642
      px      :     0.002360
      py      :     0.008257



                     *******************************
                     * LOEWDIN POPULATION ANALYSIS *
                     *******************************

----------------------
LOEWDIN ATOMIC CHARGES
----------------------
   0 C :   -0.114134
   1 C :   -0.182638
   2 C :   -0.058083
   3 H :    0.129229
   4 H :    0.135626
   5 C :   -0.021181
   6 H :    0.199800
   7 C :   -0.181195
   8 C :    0.230378
   9 H :    0.065118
  10 N :   -0.272063
  11 O :   -0.208836
  12 H :    0.058346
  13 O :   -0.316105
  14 H :    0.064092
  15 H :    0.066232
  16 H :    0.067959
  17 H :    0.076653
  18 H :    0.077848
  19 H :    0.055855
  20 H :    0.065288
  21 H :    0.061810

-------------------------------
LOEWDIN REDUCED ORBITAL CHARGES
-------------------------------
  0 C s       :     2.888307  s :     2.888307
      pz      :     1.072178  p :     3.133674
      px      :     1.012515
      py      :     1.048980
      dz2     :     0.023457  d :     0.092153
      dxz     :     0.015524
      dyz     :     0.010935
      dx2y2   :     0.026158
      dxy     :     0.016078

  1 C s       :     2.905177  s :     2.905177
      pz      :     1.082002  p :     3.201949
      px      :     1.036752
      py      :     1.083195
      dz2     :     0.017767  d :     0.075512
      dxz     :     0.014472
      dyz     :     0.009375
      dx2y2   :     0.020657
      dxy     :     0.013241

  2 C s       :     2.878248  s :     2.878248
      pz      :     1.022442  p :     3.071703
      px      :     0.990882
      py      :     1.058379
      dz2     :     0.027530  d :     0.108132
      dxz     :     0.021133
      dyz     :     0.017393
      dx2y2   :     0.023501
      dxy     :     0.018575

  3 H s       :     0.789173  s :     0.789173
      pz      :     0.023257  p :     0.081598
      px      :     0.043132
      py      :     0.015208

  4 H s       :     0.782088  s :     0.782088
      pz      :     0.015145  p :     0.082286
      px      :     0.021303
      py      :     0.045838

  5 C s       :     2.871485  s :     2.871485
      pz      :     0.938225  p :     3.010157
      px      :     1.045903
      py      :     1.026029
      dz2     :     0.034229  d :     0.139539
      dxz     :     0.033342
      dyz     :     0.031595
      dx2y2   :     0.018279
      dxy     :     0.022095

  6 H s       :     0.680207  s :     0.680207
      pz      :     0.041543  p :     0.119993
      px      :     0.038580
      py      :     0.039870

  7 C s       :     2.904160  s :     2.904160
      pz      :     1.034900  p :     3.201980
      px      :     1.087567
      py      :     1.079513
      dz2     :     0.019659  d :     0.075055
      dxz     :     0.013095
      dyz     :     0.016450
      dx2y2   :     0.011949
      dxy     :     0.013902

  8 C s       :     2.849829  s :     2.849829
      pz      :     0.794943  p :     2.603037
      px      :     0.789557
      py      :     1.018537
      dz2     :     0.033838  d :     0.316757
      dxz     :     0.023589
      dyz     :     0.098581
      dx2y2   :     0.061194
      dxy     :     0.099555

  9 H s       :     0.894741  s :     0.894741
      pz      :     0.014443  p :     0.040140
      px      :     0.010788
      py      :     0.014910

 10 N s       :     3.188838  s :     3.188838
      pz      :     1.321288  p :     4.021953
      px      :     1.372585
      py      :     1.328080
      dz2     :     0.019941  d :     0.061272
      dxz     :     0.011221
      dyz     :     0.008456
      dx2y2   :     0.017527
      dxy     :     0.004128

 11 O s       :     3.459607  s :     3.459607
      pz      :     1.532627  p :     4.700830
      px      :     1.525157
      py      :     1.643046
      dz2     :     0.003803  d :     0.048399
      dxz     :     0.010445
      dyz     :     0.014056
      dx2y2   :     0.005632
      dxy     :     0.014462

 12 H s       :     0.901913  s :     0.901913
      pz      :     0.023468  p :     0.039741
      px      :     0.008144
      py      :     0.008129

 13 O s       :     3.547952  s :     3.547952
      pz      :     1.624066  p :     4.711064
      px      :     1.625679
      py      :     1.461319
      dz2     :     0.007399  d :     0.057090
      dxz     :     0.000181
      dyz     :     0.013864
      dx2y2   :     0.021814
      dxy     :     0.013832

 14 H s       :     0.896260  s :     0.896260
      pz      :     0.006634  p :     0.039648
      px      :     0.009826
      py      :     0.023189

 15 H s       :     0.893749  s :     0.893749
      pz      :     0.006562  p :     0.040018
      px      :     0.011681
      py      :     0.021775

 16 H s       :     0.891765  s :     0.891765
      pz      :     0.009108  p :     0.040275
      px      :     0.023939
      py      :     0.007228

 17 H s       :     0.883478  s :     0.883478
      pz      :     0.004970  p :     0.039869
      px      :     0.009964
      py      :     0.024935

 18 H s       :     0.879794  s :     0.879794
      pz      :     0.026217  p :     0.042358
      px      :     0.008163
      py      :     0.007978

 19 H s       :     0.905024  s :     0.905024
      pz      :     0.007313  p :     0.039121
      px      :     0.007775
      py      :     0.024033

 20 H s       :     0.895176  s :     0.895176
      pz      :     0.014743  p :     0.039536
      px      :     0.011675
      py      :     0.013118

 21 H s       :     0.898719  s :     0.898719
      pz      :     0.007168  p :     0.039470
      px      :     0.008066
      py      :     0.024236



                      *****************************
                      * MAYER POPULATION ANALYSIS *
                      *****************************

  NA   - Mulliken gross atomic population
  ZA   - Total nuclear charge
  QA   - Mulliken gross atomic charge
  VA   - Mayer's total valence
  BVA  - Mayer's bonded valence
  FA   - Mayer's free valence

  ATOM       NA         ZA         QA         VA         BVA        FA
  0 C      6.2169     6.0000    -0.2169     3.7839     3.7839    -0.0000
  1 C      6.3315     6.0000    -0.3315     3.8610     3.8610     0.0000
  2 C      6.1386     6.0000    -0.1386     3.7734     3.7734     0.0000
  3 H      0.7268     1.0000     0.2732     0.9046     0.9046    -0.0000
  4 H      0.7143     1.0000     0.2857     0.9051     0.9051     0.0000
  5 C      6.0108     6.0000    -0.0108     3.7317     3.7317     0.0000
  6 H      0.6304     1.0000     0.3696     0.8738     0.8738    -0.0000
  7 C      6.3304     6.0000    -0.3304     3.8392     3.8392     0.0000
  8 C      5.2137     6.0000     0.7863     3.6698     3.6698    -0.0000
  9 H      0.8819     1.0000     0.1181     0.9548     0.9548    -0.0000
 10 N      7.6873     7.0000    -0.6873     2.7718     2.7718    -0.0000
 11 O      8.6370     8.0000    -0.6370     1.8272     1.8272    -0.0000
 12 H      0.8946     1.0000     0.1054     0.9510     0.9510     0.0000
 13 O      8.5949     8.0000    -0.5949     1.8853     1.8853     0.0000
 14 H      0.8731     1.0000     0.1269     0.9492     0.9492     0.0000
 15 H      0.8803     1.0000     0.1197     0.9518     0.9518     0.0000
 16 H      0.8793     1.0000     0.1207     0.9534     0.9534     0.0000
 17 H      0.8445     1.0000     0.1555     0.9431     0.9431     0.0000
 18 H      0.8407     1.0000     0.1593     0.9482     0.9482     0.0000
 19 H      0.8983     1.0000     0.1017     0.9513     0.9513     0.0000
 20 H      0.8851     1.0000     0.1149     0.9524     0.9524    -0.0000
 21 H      0.8896     1.0000     0.1104     0.9514     0.9514    -0.0000

  Mayer bond orders larger than 0.100000
B(  0-C ,  1-C ) :   0.9719 B(  0-C ,  2-C ) :   0.9676 B(  0-C , 18-H ) :   0.9617 
B(  0-C , 19-H ) :   0.9723 B(  1-C , 12-H ) :   0.9753 B(  1-C , 20-H ) :   0.9785 
B(  1-C , 21-H ) :   0.9757 B(  2-C ,  5-C ) :   0.9698 B(  2-C ,  7-C ) :   0.9743 
B(  2-C , 14-H ) :   0.9624 B(  3-H , 10-N ) :   0.9103 B(  4-H , 10-N ) :   0.8954 
B(  5-C ,  8-C ) :   0.9055 B(  5-C , 10-N ) :   0.9837 B(  5-C , 17-H ) :   0.9560 
B(  6-H , 11-O ) :   0.8412 B(  7-C ,  9-H ) :   0.9710 B(  7-C , 15-H ) :   0.9698 
B(  7-C , 16-H ) :   0.9744 B(  8-C , 11-O ) :   0.9657 B(  8-C , 13-O ) :   1.8222 


-------
TIMINGS
-------

Total SCF time: 0 days 0 hours 0 min 22 sec 

Total time                  ....      22.915 sec
Sum of individual times     ....      21.890 sec  ( 95.5%)

SCF preparation             ....       0.017 sec  (  0.1%)
Fock matrix formation       ....      21.815 sec  ( 95.2%)
  Startup                   ....       0.001 sec  (  0.0% of F)
  Coulomb+Exchange Fock     ....      22.820 sec  (104.6% of F)
Diagonalization             ....       0.000 sec  (  0.0%)
Density matrix formation    ....       0.005 sec  (  0.0%)
Total Energy calculation    ....       0.001 sec  (  0.0%)
Population analysis         ....       0.003 sec  (  0.0%)
Orbital Transformation      ....       0.006 sec  (  0.0%)
Orbital Orthonormalization  ....       0.000 sec  (  0.0%)
DIIS solution               ....       0.026 sec  (  0.1%)
SOSCF solution              ....       0.017 sec  (  0.1%)
Finished LeanSCF after  22.9 sec

Maximum memory used throughout the entire LEANSCF-calculation: 15.3 MB

------------------------------------------------------------------------------
                                ORCA  MP2 
------------------------------------------------------------------------------

Freezing NCore=18 chemical core electrons
MP2 will be done in the AO integral direct mode
The Q1-step will be done using symmetric double matrices
Dimension of the basis                    ...  191
Memory devoted for MP2                    ... 4096 MB   
Memory needed for all in one shot         ...  722 MB
Number of MOs that can be treated together...  152      
MP2 density construction                  ... relaxed
The MP2 gradient is requested => amplitudes will be stored on disk
Total number of MOs              ...   27
Number of MOs treated per batch  ...   27 
Number of batches necessary      ...    1 
OPERATORS   0/  0 PASS   0
-----------------------------------------------
 MP2 CORRELATION ENERGY   :     -1.370256465 Eh
-----------------------------------------------


---------------------
MP2 DENSITY FORMATION
---------------------

Completing the external part of the density      ... done
Storing the unrelaxed density                    ... done

Calculating G(D)                                 ... done
Completing the Lagrangian                        ... done
Solving the Z-vector equations                   ... 
-------------------
SHARK CP-SCF DRIVER
-------------------

Dimension of the orbital basis          ...    191
Dimension of the CPSCF-problem          ...   5580
Number of operators                     ...      1
Max. number of iterations               ...    128
Convergence Tolerance                   ... 1.0e-04
Number of perturbations                 ...      1
Perturbation type                       ... REAL

----------------------------
POPLE LINEAR EQUATION SOLVER
----------------------------

  ITERATION   0:   ||err||_max =   1.2795e-01 (   2.6 sec)
  ITERATION   1:   ||err||_max =   3.3316e-02 (   2.6 sec)
  ITERATION   2:   ||err||_max =   1.4349e-02 (   2.7 sec)
  ITERATION   3:   ||err||_max =   3.4789e-03 (   2.6 sec)
  ITERATION   4:   ||err||_max =   1.3224e-03 (   2.7 sec)
  ITERATION   5:   ||err||_max =   3.2751e-04 (   2.6 sec)
  ITERATION   6:   ||err||_max =   1.0181e-04 (   2.7 sec)
  ITERATION   7:   ||err||_max =   4.1379e-05 (   2.7 sec)
                                                 ... done
Finalizing the relaxed density                   ... done
Transforming P to the AO basis                   ... done
Storing the relaxed density                      ... done

------------------------------------
ENERGY WEIGHTED DENSITY FINALIZATION
------------------------------------

Gathering the parts of the W-matrix              ...                                                      done
Forming the Z-density                            ... done
Transforming Z to the AO basis                   ... done
Calculating G(Z)                                 ... done
Finalizing the W-matrix                          ...                                                      done
Transforming W to the AO basis and storing       ... done

                *********************************************
                * UNRELAXED MP2 DENSITY POPULATION ANALYSIS *
                *********************************************

------------------------------------------------------------------------------
                           ORCA POPULATION ANALYSIS
------------------------------------------------------------------------------
Input electron density              ... 1.pmp2ur
BaseName (.gbw .S,...)              ... 1

                    ********************************
                    * MULLIKEN POPULATION ANALYSIS *
                    ********************************

-----------------------
MULLIKEN ATOMIC CHARGES
-----------------------
   0 C :   -0.218842
   1 C :   -0.333659
   2 C :   -0.140779
   3 H :    0.272039
   4 H :    0.284042
   5 C :   -0.016072
   6 H :    0.366346
   7 C :   -0.332199
   8 C :    0.752713
   9 H :    0.118978
  10 N :   -0.679124
  11 O :   -0.623142
  12 H :    0.106369
  13 O :   -0.571805
  14 H :    0.127550
  15 H :    0.120561
  16 H :    0.121535
  17 H :    0.156061
  18 H :    0.159461
  19 H :    0.102721
  20 H :    0.115901
  21 H :    0.111347
Sum of atomic charges:    0.0000000

--------------------------------
MULLIKEN REDUCED ORBITAL CHARGES
--------------------------------
  0 C s       :     3.233532  s :     3.233532
      pz      :     1.034773  p :     2.920418
      px      :     0.899077
      py      :     0.986568
      dz2     :     0.016342  d :     0.064892
      dxz     :     0.011198
      dyz     :     0.009186
      dx2y2   :     0.016699
      dxy     :     0.011468
  1 C s       :     3.249143  s :     3.249143
      pz      :     1.041813  p :     3.026583
      px      :     0.939427
      py      :     1.045343
      dz2     :     0.013405  d :     0.057933
      dxz     :     0.010910
      dyz     :     0.009051
      dx2y2   :     0.014130
      dxy     :     0.010436
  2 C s       :     3.230539  s :     3.230539
      pz      :     0.914012  p :     2.838721
      px      :     0.900607
      py      :     1.024102
      dz2     :     0.017386  d :     0.071519
      dxz     :     0.013611
      dyz     :     0.012044
      dx2y2   :     0.015437
      dxy     :     0.013041
  3 H s       :     0.699812  s :     0.699812
      pz      :     0.008386  p :     0.028149
      px      :     0.014063
      py      :     0.005700
  4 H s       :     0.687877  s :     0.687877
      pz      :     0.005344  p :     0.028081
      px      :     0.007649
      py      :     0.015089
  5 C s       :     3.183811  s :     3.183811
      pz      :     0.775984  p :     2.746658
      px      :     0.990265
      py      :     0.980409
      dz2     :     0.020232  d :     0.085603
      dxz     :     0.019061
      dyz     :     0.018417
      dx2y2   :     0.012837
      dxy     :     0.015055
  6 H s       :     0.591149  s :     0.591149
      pz      :     0.015047  p :     0.042505
      px      :     0.013956
      py      :     0.013502
  7 C s       :     3.244494  s :     3.244494
      pz      :     0.935541  p :     3.029871
      px      :     1.061039
      py      :     1.033291
      dz2     :     0.013248  d :     0.057834
      dxz     :     0.010396
      dyz     :     0.011942
      dx2y2   :     0.010519
      dxy     :     0.011730
  8 C s       :     2.965320  s :     2.965320
      pz      :     0.699653  p :     2.125303
      px      :     0.682105
      py      :     0.743545
      dz2     :     0.017956  d :     0.156664
      dxz     :     0.013585
      dyz     :     0.047669
      dx2y2   :     0.029741
      dxy     :     0.047713
  9 H s       :     0.865485  s :     0.865485
      pz      :     0.005593  p :     0.015537
      px      :     0.004270
      py      :     0.005674
 10 N s       :     3.602866  s :     3.602866
      pz      :     1.288498  p :     4.019608
      px      :     1.392011
      py      :     1.339099
      dz2     :     0.015647  d :     0.056650
      dxz     :     0.009474
      dyz     :     0.008400
      dx2y2   :     0.016588
      dxy     :     0.006540
 11 O s       :     3.834152  s :     3.834152
      pz      :     1.549466  p :     4.740558
      px      :     1.541474
      py      :     1.649619
      dz2     :     0.006650  d :     0.048432
      dxz     :     0.007422
      dyz     :     0.013394
      dx2y2   :     0.007528
      dxy     :     0.013438
 12 H s       :     0.878140  s :     0.878140
      pz      :     0.008679  p :     0.015491
      px      :     0.003415
      py      :     0.003397
 13 O s       :     3.871199  s :     3.871199
      pz      :     1.642050  p :     4.646336
      px      :     1.647799
      py      :     1.356488
      dz2     :     0.007479  d :     0.054271
      dxz     :     0.004451
      dyz     :     0.014558
      dx2y2   :     0.013266
      dxy     :     0.014517
 14 H s       :     0.857411  s :     0.857411
      pz      :     0.002683  p :     0.015039
      px      :     0.003735
      py      :     0.008621
 15 H s       :     0.864069  s :     0.864069
      pz      :     0.002846  p :     0.015370
      px      :     0.004561
      py      :     0.007964
 16 H s       :     0.862878  s :     0.862878
      pz      :     0.003760  p :     0.015587
      px      :     0.008749
      py      :     0.003078
 17 H s       :     0.829230  s :     0.829230
      pz      :     0.002088  p :     0.014709
      px      :     0.003786
      py      :     0.008836
 18 H s       :     0.824636  s :     0.824636
      pz      :     0.009293  p :     0.015904
      px      :     0.003339
      py      :     0.003272
 19 H s       :     0.882035  s :     0.882035
      pz      :     0.002955  p :     0.015244
      px      :     0.003245
      py      :     0.009044
 20 H s       :     0.868647  s :     0.868647
      pz      :     0.005686  p :     0.015452
      px      :     0.004649
      py      :     0.005117
 21 H s       :     0.873238  s :     0.873238
      pz      :     0.003056  p :     0.015415
      px      :     0.003403
      py      :     0.008956


                     *******************************
                     * LOEWDIN POPULATION ANALYSIS *
                     *******************************

----------------------
LOEWDIN ATOMIC CHARGES
----------------------
   0 C :   -0.114653
   1 C :   -0.182867
   2 C :   -0.059526
   3 H :    0.128575
   4 H :    0.134686
   5 C :   -0.024540
   6 H :    0.197386
   7 C :   -0.181034
   8 C :    0.205777
   9 H :    0.065294
  10 N :   -0.267253
  11 O :   -0.200054
  12 H :    0.058531
  13 O :   -0.297491
  14 H :    0.064368
  15 H :    0.066437
  16 H :    0.068109
  17 H :    0.076820
  18 H :    0.077752
  19 H :    0.056145
  20 H :    0.065510
  21 H :    0.062030

-------------------------------
LOEWDIN REDUCED ORBITAL CHARGES
-------------------------------
  0 C s       :     2.887993  s :     2.887993
      pz      :     1.066074  p :     3.115839
      px      :     1.006419
      py      :     1.043346
      dz2     :     0.027278  d :     0.110821
      dxz     :     0.019312
      dyz     :     0.014534
      dx2y2   :     0.029900
      dxy     :     0.019797
  1 C s       :     2.904374  s :     2.904374
      pz      :     1.076753  p :     3.185345
      px      :     1.030624
      py      :     1.077967
      dz2     :     0.021228  d :     0.093148
      dxz     :     0.018092
      dyz     :     0.012801
      dx2y2   :     0.024171
      dxy     :     0.016855
  2 C s       :     2.878340  s :     2.878340
      pz      :     1.016116  p :     3.053698
      px      :     0.985404
      py      :     1.052178
      dz2     :     0.031429  d :     0.127488
      dxz     :     0.025078
      dyz     :     0.021266
      dx2y2   :     0.027239
      dxy     :     0.022475
  3 H s       :     0.786067  s :     0.786067
      pz      :     0.024320  p :     0.085358
      px      :     0.044856
      py      :     0.016182
  4 H s       :     0.779348  s :     0.779348
      pz      :     0.016163  p :     0.085966
      px      :     0.022250
      py      :     0.047553
  5 C s       :     2.871733  s :     2.871733
      pz      :     0.934903  p :     2.995035
      px      :     1.039092
      py      :     1.021041
      dz2     :     0.037983  d :     0.157772
      dxz     :     0.036791
      dyz     :     0.034828
      dx2y2   :     0.022258
      dxy     :     0.025913
  6 H s       :     0.680138  s :     0.680138
      pz      :     0.042293  p :     0.122477
      px      :     0.039308
      py      :     0.040875
  7 C s       :     2.903391  s :     2.903391
      pz      :     1.028633  p :     3.184459
      px      :     1.081907
      py      :     1.073919
      dz2     :     0.023318  d :     0.093184
      dxz     :     0.016849
      dyz     :     0.020076
      dx2y2   :     0.015498
      dxy     :     0.017442
  8 C s       :     2.850566  s :     2.850566
      pz      :     0.802335  p :     2.615340
      px      :     0.796819
      py      :     1.016186
      dz2     :     0.036684  d :     0.328317
      dxz     :     0.026403
      dyz     :     0.099917
      dx2y2   :     0.064382
      dxy     :     0.100932
  9 H s       :     0.889875  s :     0.889875
      pz      :     0.016083  p :     0.044831
      px      :     0.012241
      py      :     0.016507
 10 N s       :     3.186912  s :     3.186912
      pz      :     1.312013  p :     3.994987
      px      :     1.363462
      py      :     1.319512
      dz2     :     0.024849  d :     0.085354
      dxz     :     0.016137
      dyz     :     0.013214
      dx2y2   :     0.022412
      dxy     :     0.008742
 11 O s       :     3.457674  s :     3.457674
      pz      :     1.522136  p :     4.669481
      px      :     1.514731
      py      :     1.632614
      dz2     :     0.008578  d :     0.072900
      dxz     :     0.015648
      dyz     :     0.018990
      dx2y2   :     0.010262
      dxy     :     0.019422
 12 H s       :     0.897082  s :     0.897082
      pz      :     0.025483  p :     0.044387
      px      :     0.009486
      py      :     0.009418
 13 O s       :     3.544985  s :     3.544985
      pz      :     1.608993  p :     4.671166
      px      :     1.610599
      py      :     1.451573
      dz2     :     0.012155  d :     0.081340
      dxz     :     0.004614
      dyz     :     0.018730
      dx2y2   :     0.027148
      dxy     :     0.018692
 14 H s       :     0.890931  s :     0.890931
      pz      :     0.008043  p :     0.044700
      px      :     0.011358
      py      :     0.025299
 15 H s       :     0.888911  s :     0.888911
      pz      :     0.007834  p :     0.044651
      px      :     0.013142
      py      :     0.023676
 16 H s       :     0.886978  s :     0.886978
      pz      :     0.010511  p :     0.044913
      px      :     0.025911
      py      :     0.008492
 17 H s       :     0.878449  s :     0.878449
      pz      :     0.006393  p :     0.044731
      px      :     0.011479
      py      :     0.026859
 18 H s       :     0.875170  s :     0.875170
      pz      :     0.028227  p :     0.047078
      px      :     0.009543
      py      :     0.009307
 19 H s       :     0.899840  s :     0.899840
      pz      :     0.008638  p :     0.044016
      px      :     0.009193
      py      :     0.026185
 20 H s       :     0.890393  s :     0.890393
      pz      :     0.016303  p :     0.044097
      px      :     0.013181
      py      :     0.014613
 21 H s       :     0.893910  s :     0.893910
      pz      :     0.008407  p :     0.044060
      px      :     0.009396
      py      :     0.026258


                      *****************************
                      * MAYER POPULATION ANALYSIS *
                      *****************************

  NA   - Mulliken gross atomic population
  ZA   - Total nuclear charge
  QA   - Mulliken gross atomic charge
  VA   - Mayer's total valence
  BVA  - Mayer's bonded valence
  FA   - Mayer's free valence

  ATOM       NA         ZA         QA         VA         BVA        FA
  0 C      6.2188     6.0000    -0.2188     3.8673     3.5996     0.2677
  1 C      6.3337     6.0000    -0.3337     3.9472     3.6980     0.2492
  2 C      6.1408     6.0000    -0.1408     3.8530     3.5651     0.2879
  3 H      0.7280     1.0000     0.2720     0.9117     0.8656     0.0460
  4 H      0.7160     1.0000     0.2840     0.9125     0.8666     0.0459
  5 C      6.0161     6.0000    -0.0161     3.8073     3.5268     0.2805
  6 H      0.6337     1.0000     0.3663     0.8808     0.8361     0.0447
  7 C      6.3322     6.0000    -0.3322     3.9265     3.6730     0.2535
  8 C      5.2473     6.0000     0.7527     3.7346     3.4432     0.2913
  9 H      0.8810     1.0000     0.1190     0.9641     0.9165     0.0476
 10 N      7.6791     7.0000    -0.6791     2.9661     2.6372     0.3289
 11 O      8.6231     8.0000    -0.6231     2.0863     1.7290     0.3573
 12 H      0.8936     1.0000     0.1064     0.9605     0.9134     0.0471
 13 O      8.5718     8.0000    -0.5718     2.1518     1.7531     0.3987
 14 H      0.8725     1.0000     0.1275     0.9590     0.9080     0.0510
 15 H      0.8794     1.0000     0.1206     0.9611     0.9139     0.0472
 16 H      0.8785     1.0000     0.1215     0.9624     0.9151     0.0474
 17 H      0.8439     1.0000     0.1561     0.9518     0.9035     0.0483
 18 H      0.8405     1.0000     0.1595     0.9569     0.9092     0.0477
 19 H      0.8973     1.0000     0.1027     0.9613     0.9116     0.0497
 20 H      0.8841     1.0000     0.1159     0.9615     0.9149     0.0466
 21 H      0.8887     1.0000     0.1113     0.9608     0.9141     0.0467

  Mayer bond orders larger than 0.100000
B(  0-C ,  1-C ) :   0.9201 B(  0-C ,  2-C ) :   0.9130 B(  0-C , 18-H ) :   0.9242 
B(  0-C , 19-H ) :   0.9337 B(  1-C , 12-H ) :   0.9384 B(  1-C , 20-H ) :   0.9419 
B(  1-C , 21-H ) :   0.9391 B(  2-C ,  5-C ) :   0.9137 B(  2-C ,  7-C ) :   0.9206 
B(  2-C , 14-H ) :   0.9229 B(  3-H , 10-N ) :   0.8730 B(  4-H , 10-N ) :   0.8586 
B(  5-C ,  8-C ) :   0.8559 B(  5-C , 10-N ) :   0.9267 B(  5-C , 17-H ) :   0.9183 
B(  6-H , 11-O ) :   0.8062 B(  7-C ,  9-H ) :   0.9338 B(  7-C , 15-H ) :   0.9328 
B(  7-C , 16-H ) :   0.9372 B(  8-C , 11-O ) :   0.9121 B(  8-C , 13-O ) :   1.7030 



                *******************************************
                * RELAXED MP2 DENSITY POPULATION ANALYSIS *
                *******************************************

------------------------------------------------------------------------------
                           ORCA POPULATION ANALYSIS
------------------------------------------------------------------------------
Input electron density              ... 1.pmp2re
BaseName (.gbw .S,...)              ... 1

                    ********************************
                    * MULLIKEN POPULATION ANALYSIS *
                    ********************************

-----------------------
MULLIKEN ATOMIC CHARGES
-----------------------
   0 C :   -0.204486
   1 C :   -0.332154
[...]
   5 C :   -0.043490
   6 H :    0.187103
   7 C :   -0.195713
   8 C :    0.143682
   9 H :    0.068964
  10 N :   -0.256423
  11 O :   -0.173524
  12 H :    0.063050
  13 O :   -0.234184
  14 H :    0.067038
  15 H :    0.070371
  16 H :    0.071851
  17 H :    0.077703
  18 H :    0.079067
  19 H :    0.060203
  20 H :    0.069971
  21 H :    0.066897

-------------------------------
LOEWDIN REDUCED ORBITAL CHARGES
-------------------------------
  0 C s       :     2.889780  s :     2.889780
      pz      :     1.070916  p :     3.129270
      px      :     1.009864
      py      :     1.048490
      dz2     :     0.026264  d :     0.104480
      dxz     :     0.017864
      dyz     :     0.013161
      dx2y2   :     0.026999
      dxy     :     0.020193
  1 C s       :     2.906054  s :     2.906054
      pz      :     1.083978  p :     3.202797
      px      :     1.032504
      py      :     1.086315
      dz2     :     0.019914  d :     0.087051
      dxz     :     0.016766
      dyz     :     0.012144
      dx2y2   :     0.020932
      dxy     :     0.017295
  2 C s       :     2.880542  s :     2.880542
      pz      :     1.016666  p :     3.061424
      px      :     0.990637
      py      :     1.054122
      dz2     :     0.030443  d :     0.121083
      dxz     :     0.023890
      dyz     :     0.019517
      dx2y2   :     0.025574
      dxy     :     0.021660
  3 H s       :     0.787464  s :     0.787464
      pz      :     0.024786  p :     0.083882
      px      :     0.044118
      py      :     0.014979
  4 H s       :     0.784204  s :     0.784204
      pz      :     0.016724  p :     0.084534
      px      :     0.020191
      py      :     0.047619
  5 C s       :     2.876060  s :     2.876060
      pz      :     0.947247  p :     3.017367
      px      :     1.040517
      py      :     1.029603
      dz2     :     0.034828  d :     0.150062
      dxz     :     0.037499
      dyz     :     0.031480
      dx2y2   :     0.022459
      dxy     :     0.023796
  6 H s       :     0.692872  s :     0.692872
      pz      :     0.041684  p :     0.120025
      px      :     0.036201
      py      :     0.042141
  7 C s       :     2.906416  s :     2.906416
      pz      :     1.030853  p :     3.202322
      px      :     1.088766
      py      :     1.082703
      dz2     :     0.021827  d :     0.086975
      dxz     :     0.016433
      dyz     :     0.018180
      dx2y2   :     0.015103
      dxy     :     0.015432
  8 C s       :     2.861893  s :     2.861893
      pz      :     0.856716  p :     2.688931
      px      :     0.839256
      py      :     0.992959
      dz2     :     0.035065  d :     0.305494
      dxz     :     0.022724
      dyz     :     0.094968
      dx2y2   :     0.060981
      dxy     :     0.091756
  9 H s       :     0.886470  s :     0.886470
      pz      :     0.015692  p :     0.044566
      px      :     0.012430
      py      :     0.016444
 10 N s       :     3.201678  s :     3.201678
      pz      :     1.300069  p :     3.971745
      px      :     1.418472
      py      :     1.253204
      dz2     :     0.022010  d :     0.083001
      dxz     :     0.016232
      dyz     :     0.014512
      dx2y2   :     0.024082
      dxy     :     0.006164
 11 O s       :     3.483158  s :     3.483158
      pz      :     1.487363  p :     4.617828
      px      :     1.527211
      py      :     1.603254
      dz2     :     0.008898  d :     0.072538
      dxz     :     0.014431
      dyz     :     0.020099
      dx2y2   :     0.010536
      dxy     :     0.018574
 12 H s       :     0.892871  s :     0.892871
      pz      :     0.025190  p :     0.044079
      px      :     0.009273
      py      :     0.009616
 13 O s       :     3.561625  s :     3.561625
      pz      :     1.579861  p :     4.593843
      px      :     1.562209
      py      :     1.451773
      dz2     :     0.011594  d :     0.078716
      dxz     :     0.004655
      dyz     :     0.018719
      dx2y2   :     0.025276
      dxy     :     0.018471
 14 H s       :     0.888809  s :     0.888809
      pz      :     0.008141  p :     0.044154
      px      :     0.011381
      py      :     0.024631
 15 H s       :     0.885487  s :     0.885487
      pz      :     0.008105  p :     0.044142
      px      :     0.012630
      py      :     0.023408
 16 H s       :     0.883529  s :     0.883529
      pz      :     0.010660  p :     0.044620
      px      :     0.025449
      py      :     0.008512
 17 H s       :     0.877509  s :     0.877509
      pz      :     0.007097  p :     0.044788
      px      :     0.011366
      py      :     0.026325
 18 H s       :     0.874455  s :     0.874455
      pz      :     0.027741  p :     0.046478
      px      :     0.009191
      py      :     0.009545
 19 H s       :     0.896259  s :     0.896259
      pz      :     0.008701  p :     0.043538
      px      :     0.009703
      py      :     0.025133
 20 H s       :     0.886321  s :     0.886321
      pz      :     0.015664  p :     0.043709
      px      :     0.013197
      py      :     0.014848
 21 H s       :     0.889521  s :     0.889521
      pz      :     0.008427  p :     0.043582
      px      :     0.010048
      py      :     0.025108


                      *****************************
                      * MAYER POPULATION ANALYSIS *
                      *****************************

  NA   - Mulliken gross atomic population
  ZA   - Total nuclear charge
  QA   - Mulliken gross atomic charge
  VA   - Mayer's total valence
  BVA  - Mayer's bonded valence
  FA   - Mayer's free valence

  ATOM       NA         ZA         QA         VA         BVA        FA
  0 C      6.2035     6.0000    -0.2035     3.9236     3.6586     0.2650
  1 C      6.3333     6.0000    -0.3333     3.9716     3.7235     0.2481
  2 C      6.0904     6.0000    -0.0904     3.9243     3.6411     0.2831
  3 H      0.7428     1.0000     0.2572     0.9170     0.8705     0.0464
  4 H      0.7345     1.0000     0.2655     0.9267     0.8808     0.0459
  5 C      6.0424     6.0000    -0.0424     3.8857     3.6092     0.2765
  6 H      0.6602     1.0000     0.3398     0.9041     0.8600     0.0442
  7 C      6.3365     6.0000    -0.3365     3.9540     3.7013     0.2527
  8 C      5.4387     6.0000     0.5613     3.9406     3.6615     0.2790
  9 H      0.8863     1.0000     0.1137     0.9671     0.9194     0.0477
 10 N      7.6098     7.0000    -0.6098     3.0369     2.7119     0.3250
 11 O      8.5222     8.0000    -0.5222     2.2066     1.8536     0.3531
 12 H      0.8946     1.0000     0.1054     0.9634     0.9163     0.0471
 13 O      8.4477     8.0000    -0.4477     2.3091     1.9191     0.3901
 14 H      0.8891     1.0000     0.1109     0.9627     0.9113     0.0514
 15 H      0.8830     1.0000     0.1170     0.9643     0.9170     0.0474
 16 H      0.8836     1.0000     0.1164     0.9646     0.9171     0.0475
 17 H      0.8633     1.0000     0.1367     0.9578     0.9095     0.0483
 18 H      0.8561     1.0000     0.1439     0.9651     0.9176     0.0475
 19 H      0.9041     1.0000     0.0959     0.9636     0.9135     0.0500
 20 H      0.8881     1.0000     0.1119     0.9632     0.9164     0.0468
 21 H      0.8900     1.0000     0.1100     0.9633     0.9164     0.0468

  Mayer bond orders larger than 0.100000
B(  0-C ,  1-C ) :   0.9387 B(  0-C ,  2-C ) :   0.9327 B(  0-C , 18-H ) :   0.9148 
B(  0-C , 19-H ) :   0.9250 B(  1-C , 12-H ) :   0.9343 B(  1-C , 20-H ) :   0.9360 
B(  1-C , 21-H ) :   0.9357 B(  2-C ,  5-C ) :   0.9139 B(  2-C ,  7-C ) :   0.9381 
B(  2-C , 14-H ) :   0.9113 B(  3-H , 10-N ) :   0.8729 B(  4-H , 10-N ) :   0.8595 
B(  5-C ,  8-C ) :   0.8656 B(  5-C , 10-N ) :   0.9593 B(  5-C , 17-H ) :   0.9053 
B(  6-H , 11-O ) :   0.8130 B(  7-C ,  9-H ) :   0.9264 B(  7-C , 15-H ) :   0.9283 
B(  7-C , 16-H ) :   0.9291 B(  8-C , 11-O ) :   0.9847 B(  8-C , 13-O ) :   1.7960 



----------------------------------
MP2 DERIVATIVE INTEGRAL GENERATION
----------------------------------

Input SCF Electron Density              ... 1.scfp
Input Correlated Electron Density       ... 1.pmp2re
Input Energy Weighted Density           ... 1.wmp2.tmp
Input Wavefunction Amplitudes           ... 1.mp2tsaa.tmp

Nuclear repulsion gradient              ... done (  0.0 sec)
HCore & Overlap gradient  (SHARK)       ... done (  0.1 sec)
Analytic two-electron gradient terms    ... 
  Batch handling in the gradient evaluation:
  General contraction                   ... not used
  Memory available                      ... 4081.8 MB
  Memory per occupied orbital in Q2     ...    7.5 MB
  Memory per occupied orbital in Q3     ...    0.0 MB
  Total memory requirement per |i>      ...    7.6 MB
  Number of orbitals treated per batch  ...     27
  Number of batches to be done          ...      1
done ( 21.3 sec)

---------------------------------------
MP2 TOTAL ENERGY:     -440.364674635 Eh
---------------------------------------

The final MP2 gradient
  0:   0.00001924   0.00005692  -0.00001427
  1:  -0.00000505  -0.00000631  -0.00003353
  2:  -0.00006328  -0.00005201   0.00003078
  3:  -0.00000309   0.00002120   0.00001228
  4:  -0.00000681   0.00001114   0.00000607
  5:   0.00006261   0.00005106   0.00004499
  6:  -0.00001053  -0.00001644  -0.00001813
  7:   0.00002486   0.00002928  -0.00000915
  8:  -0.00009921   0.00010145  -0.00004789
  9:   0.00000117  -0.00000777  -0.00000373
 10:   0.00000828  -0.00006706  -0.00005745
 11:   0.00005248   0.00002151   0.00004799
 12:  -0.00000644  -0.00001684   0.00001159
 13:   0.00003936  -0.00011474   0.00001841
 14:   0.00001220   0.00000701  -0.00000506
 15:  -0.00000206  -0.00000203   0.00000757
 16:  -0.00000639   0.00000390   0.00000469
 17:  -0.00001209  -0.00000714  -0.00001478
 18:  -0.00000637  -0.00001729   0.00000456
 19:   0.00000067  -0.00000557  -0.00000298
 20:  -0.00000139   0.00001396   0.00000868
 21:   0.00000184  -0.00000420   0.00000935

-----------------------------------
NORM OF THE MP2 GRADIENT:  0.000278
-----------------------------------

Maximum memory used throughout the entire MP2-calculation: 780.0 MB

-------------------------   --------------------
FINAL SINGLE POINT ENERGY      -440.364674635369
-------------------------   --------------------

                                *** OPTIMIZATION RUN DONE ***


------------------------------------------------------------------------------
                              ORCA PROPERTY CALCULATIONS
------------------------------------------------------------------------------

GBWName                                 ... 1.gbw
Number of atoms                         ...     22
Number of basis functions               ...    191
Max core memory                         ...   4096 MB

Electric properties:
Dipole moment                           ... YES
Quadrupole moment                       ...  NO
Static polarizability (Dipole/Dipole)   ...  NO
Static polarizability (Dipole/Quad.)    ...  NO
Static polarizability (Quad./Quad.)     ...  NO
Static polarizability (Velocity)        ...  NO
Static hyperpolarizability              ...  NO

Atomic electric properties:
Dipole moment                           ...  NO
Quadrupole moment                       ...  NO
Static polarizability                   ...  NO

Choice of electric origin               ... Center of mass
Position of electric origin             ...   -14.175432     7.824560    -0.200755

General magnetic properties:
Magnetizability                         ...  NO

EPR properties:
g-Tensor (aka g-matrix)                 ...  NO
Zero-Field splitting spin-orbit         ...  NO
Zero-field splitting spin-spin          ...  NO
Hyperfine couplings                     ...  NO (   0 nuclei)
Quadrupole couplings                    ...  NO (   0 nuclei)
Contact density                         ...  NO (   0 nuclei)

NMR properties:
Chemical shifts                         ...  NO (   0 nuclei)
Spin-rotation constants                 ...  NO (   0 nuclei)
Spin-spin couplings                     ...  NO (   0 nuclei,    0 pairs)

Choice of magnetic origin               ... GIAO
Position of magnetic origin             ...     0.000000     0.000000     0.000000

Properties with geometric perturbations:
SCF Hessian                             ...  NO
IR spectrum                             ...  NO
VCD spectrum                            ...  NO
X-ray spectroscopy properties:
SCF XES/XAS/RIXS spectra                ...  NO

SCF SOC stabilization energy            ...  NO
Diagonal Born-Oppenheimer correction    ...  NO

-------------
DIPOLE MOMENT
-------------

Method             : SCF
Type of density    : Electron Density
Multiplicity       :   1
Irrep              :   0
Energy             :  -438.9900532640862707 Eh
Basis              : AO
                                X                 Y                 Z
Electronic contribution:     11.388776926      -5.503771981       1.451903271
Nuclear contribution   :    -11.054904971       5.914794203      -1.239935622
                        -----------------------------------------
Total Dipole Moment    :      0.333871955       0.411022221       0.211967649
                        -----------------------------------------
Magnitude (a.u.)       :      0.570385863
Magnitude (Debye)      :      1.449805647



--------------------
Rotational spectrum 
--------------------
 
Rotational constants in cm-1:             0.089329             0.032988             0.028097 
Rotational constants in MHz :          2678.002406           988.964269           842.322877 

Dipole components along the rotational axes: 
x,y,z [a.u.] :    -0.185111     0.302472    -0.446749 
x,y,z [Debye]:    -0.470516     0.768823    -1.135545 

 

-------------
DIPOLE MOMENT
-------------

Method             : MP2
Type of density    : Electron Density
Multiplicity       :   1
Level              : Unrelaxed density
Irrep              :   0
Energy             :     0.0000000000000000 Eh
Basis              : AO
                                X                 Y                 Z
Electronic contribution:     11.392154278      -5.537271414       1.455276947
Nuclear contribution   :    -11.054904971       5.914794203      -1.239935622
                        -----------------------------------------
Total Dipole Moment    :      0.337249307       0.377522789       0.215341325
                        -----------------------------------------
Magnitude (a.u.)       :      0.550120385
Magnitude (Debye)      :      1.398294893



--------------------
Rotational spectrum 
--------------------
 
Rotational constants in cm-1:             0.089329             0.032988             0.028097 
Rotational constants in MHz :          2678.002406           988.964269           842.322877 

Dipole components along the rotational axes: 
x,y,z [a.u.] :    -0.201918     0.294511    -0.418479 
x,y,z [Debye]:    -0.513234     0.748587    -1.063690 

 

-------------
DIPOLE MOMENT
-------------

Method             : MP2
Type of density    : Electron Density
Multiplicity       :   1
Level              : Relaxed density
Irrep              :   0
Energy             :     0.0000000000000000 Eh
Basis              : AO
                                X                 Y                 Z
Electronic contribution:     11.446356072      -5.666899856       1.483346856
Nuclear contribution   :    -11.054904971       5.914794203      -1.239935622
                        -----------------------------------------
Total Dipole Moment    :      0.391451101       0.247894346       0.243411235
                        -----------------------------------------
Magnitude (a.u.)       :      0.523387620
Magnitude (Debye)      :      1.330345606



--------------------
Rotational spectrum 
--------------------
 
Rotational constants in cm-1:             0.089329             0.032988             0.028097 
Rotational constants in MHz :          2678.002406           988.964269           842.322877 

Dipole components along the rotational axes: 
x,y,z [a.u.] :    -0.307042     0.274137    -0.323279 
x,y,z [Debye]:    -0.780438     0.696801    -0.821709 

 

Dipole moment calculation done in   0.0 sec 

Maximum memory used throughout the entire PROP-calculation: 10.4 MB

--------------------------------
SUGGESTED CITATIONS FOR THIS RUN
--------------------------------

Below you find a list of papers that are relevant to this ORCA run
We neither can nor want to force you to cite these papers, but we appreciate if you do
You receive ORCA, which is the product of decades of hard work by many enthusiastic individuals, for free
The only thing we kindly ask in return is that you cite our papers,
We deeply appreciate it, if you show your appreciation for ORCA by not just citing the generic ORCA reference.

Please note that relegating all ORCA citations to the supporting information does *not* help us.
SI sections are not indexed - citations you put there will not count into any citation statistics
But we need these citations in order to attract the funding resources that allow us to do what we are doing

Therefore, if you are a happy ORCA user, please consider citing a few of the papers listed below in the main body of your paper

In addition to the list printed below, the program has created the file 1.bibtex that contains the list in bibtex format
You can import this file easily into all common literature databanks and citation aid programs


List of essential papers. We consider these as the minimum necessary citations

  1. Neese, F.
     Software update: the ORCA program system, version 6.0
     WIRES Comput. Molec. Sci. 2025 15(1), e70019
     doi.org/10.1002/wcms.7019

List of papers to cite with high priority. The work reported in these papers was absolutely
necessary for this run to complete.
Our perspective: the developers of density functionals and basis sets usually get cited in chemistry papers
Good! But without the algorithms to do something with them, the functionals or basis sets would not do anything.
Hence, in our opinion, the algorithm design and method developments papers are equally worthy of getting cited

  1. Neese, F.
     The SHARK Integral Generation and Digestion System
     J. Comp. Chem. 2022 44(3), 381
     doi.org/10.1002/jcc.26942

List of suggested additional citations. These are papers that are important in the 'surrounding' of 
of this run, or papers that preceded the highly important papers. If you like your results we are grateful for a citation.

  1. Neese, F.
     The ORCA program system
     WIRES Comput. Molec. Sci. 2012 2(1), 73-78
     doi.org/10.1002/wcms.81
  2. Neese, F.
     Software update: the ORCA program system, version 4.0
     WIRES Comput. Molec. Sci. 2018 8(1), 1-6
     doi.org/10.1002/wcms.1327
  3. Neese, F.; Wennmohs, F.; Becker, U.; Riplinger, C.
     The ORCA quantum chemistry program package
     J. Chem. Phys. 2020 152(22), 224108
     doi.org/10.1063/5.0004608
  4. Neese, F.
     Software update: The ORCA program system—Version 5.0
     WIRES Comput. Molec. Sci. 2022 12(1), e1606
     doi.org/10.1002/wcms.1606

List of optional additional citations

  1. Neese, F.
     Approximate second-order SCF convergence for spin unrestricted wavefunctions
     Chem. Phys. Lett. 2000 325(1-3), 93-98
     doi.org/10.1016/s0009-2614(00)00662-x

Timings for individual modules:

Sum of individual times          ...      730.297 sec (=  12.172 min)
Startup calculation              ...        3.996 sec (=   0.067 min)   0.5 %
SCF iterations                   ...      142.758 sec (=   2.379 min)  19.5 %
Property calculations            ...        0.046 sec (=   0.001 min)   0.0 %
MP2 module                       ...      583.483 sec (=   9.725 min)  79.9 %
Geometry relaxation              ...        0.015 sec (=   0.000 min)   0.0 %
                             ****ORCA TERMINATED NORMALLY****
TOTAL RUN TIME: 0 days 0 hours 12 minutes 10 seconds 495 msec
