
                                 *****************
                                 * O   R   C   A *
                                 *****************

                                            #,                                       
                                            ###                                      
                                            ####                                     
                                            #####                                    
                                            ######                                   
                                           ########,                                 
                                     ,,################,,,,,                         
                               ,,#################################,,                 
                          ,,##########################################,,             
                       ,#########################################, ''#####,          
                    ,#############################################,,   '####,        
                  ,##################################################,,,,####,       
                ,###########''''           ''''###############################       
              ,#####''   ,,,,##########,,,,          '''####'''          '####       
            ,##' ,,,,###########################,,,                        '##       
           ' ,,###''''                  '''############,,,                           
         ,,##''                                '''############,,,,        ,,,,,,###''
      ,#''                                            '''#######################'''  
     '                                                          ''''####''''         
             ,#######,   #######,   ,#######,      ##                                
            ,#'     '#,  ##    ##  ,#'     '#,    #''#        ,####,    ,#,          
            ##       ##  ##   ,#'  ##            #'  '#       #'       ,# #          
            ##       ##  #######   ##           ,######,      #####,      #          
            '#,     ,#'  ##    ##  '#,     ,#' ,#      #,     #,   #      #          
             '#######'   ##     ##  '#######'  #'      '#     '####' #    #          



                #########################################################
                #                        -***-                          #
                #          Department of theory and spectroscopy        #
                #                                                       #
                #                      Frank Neese                      #
                #                                                       #
                #     Directorship, Architecture, Infrastructure        #
                #                    SHARK, DRIVERS                     #
                #        Core code/Algorithms in most modules           #
                #                                                       #
                #        Max Planck Institute fuer Kohlenforschung      #
                #                Kaiser Wilhelm Platz 1                 #
                #                 D-45470 Muelheim/Ruhr                 #
                #                      Germany                          #
                #                                                       #
                #                  All rights reserved                  #
                #                        -***-                          #
                #########################################################


                         Program Version 6.1.0  -  RELEASE   -
                                (GIT: $679e74b$)
                          ($2025-06-10 18:02:51 +0200$)


 With contributions from (in alphabetic order):
[Max-Planck-Institut fuer Kohlenforschung]                               
  Daniel Aravena         : Magnetic Suceptibility                        
  Michael Atanasov       : Ab Initio Ligand Field Theory (pilot matlab implementation)
  Alexander A. Auer      : GIAO ZORA, VPT2 properties, NMR spectrum      
  Ute Becker             : All parallelization in ORCA, NUMFREQ, NUMCALC 
  Giovanni Bistoni       : ED, misc. LED, open-shell LED, HFLD           
  Dmytro Bykov           : pre 5.0 version of the SCF Hessian            
  Marcos Casanova-Páez   : Triplet and SCS-CIS(D). UHF-(DLPNO)-IP/EA/STEOM-CCSD. UHF-CVS-IP/STEOM-CCSD   
  Vijay G. Chilkuri      : MRCI spin determinant printing, contributions to CSF-ICE 
  Pauline Colinet        : FMM embedding                                 
  Dipayan Datta          : RHF DLPNO-CCSD density                        
  Achintya Kumar Dutta   : EOM-CC, STEOM-CC                              
  Nicolas Foglia         : Exact transition moments, OPA infrastructure, MCD improvements    
  Dmitry Ganyushin       : Spin-Orbit,Spin-Spin,Magnetic field MRCI      
  Miquel Garcia-Rates    : C-PCM and meta-GGA Hessian, CCSD/C-PCM, Gaussian charge scheme 
  Tiago L. C. Gouveia    : GS-ROHF, GS-ROCIS                             
  Yang Guo               : DLPNO-NEVPT2, F12-NEVPT2, CIM, IAO-localization        
  Andreas Hansen         : Spin unrestricted coupled pair/coupled cluster methods 
  Ingolf Harden          : AUTO-CI MPn and infrastructure                
  Benjamin Helmich-Paris : MC-RPA, TRAH-(SCF,CASSCF), AVAS, COSX integrals, SCF dyn. polar., MC-PDFT, srDFT 
  Lee Huntington         : MR-EOM, pCC                                   
  Robert Izsak           : Overlap fitted RIJCOSX, COSX-SCS-MP3, EOM     
  Riya Kayal             : Wick's Theorem for AUTO-CI, AUTO-CI UHF-CCSDT 
  Emily Kempfer          : AUTO-CI RHF CISDT and CCSDT, approximate NEVPT4
  Christian Kollmar      : KDIIS, OOCD, Brueckner-CCSD(T), CCSD density, CASPT2, CASPT2-K, improved NEVPT2 
  Axel Koslowski         : Symmetry handling                             
  Simone Kossmann        : meta-GGA functionals, TD-DFT gradient, OOMP2, (MP2 Hessian; deprecated post 5.0) 
  Lucas Lang             : DCDCAS, Hyperfine gauge corrections, ICE-SOC+SSC
  Marvin Lechner         : AUTO-CI (C++ implementation), FIC-MRCC        
  Spencer Leger          : CASSCF response                               
  Dagmar Lenk            : GEPOL surface, SMD, ORCA-2-JSON               
  Dimitrios Liakos       : Extrapolation schemes; Compound Job, Property file
  Dimitrios Manganas     : Further ROCIS development; embedding schemes. LFT, Crystal Embedding 
  Dimitrios Pantazis     : SARC Basis sets                               
  Anastasios Papadopoulos: AUTO-CI, single reference methods and gradients 
  Taras Petrenko         : pre 6.0 DFT Hessian and TD-DFT gradient,  ECA, NRVS 
  Petra Pikulova         : Analytic Raman intensities                    
  Peter Pinski           : DLPNO-MP2, DLPNO-MP2 Gradient                 
  Shashank Vittal Rao    : ES-AILFT, MagRelax                            
  Christoph Reimann      : Effective Core Potentials                     
  Marius Retegan         : Local ZFS, SOC                                
  Christoph Riplinger    : Optimizer, TS searches, QM/MM, DLPNO-CCSD(T), (RO)-DLPNO pert. Triples 
  Michael Roemelt        : Original ROCIS implementation, recursive CI coupling coefficients
  Masaaki Saitow         : Open-shell DLPNO-CCSD energy and density      
  Barbara Sandhoefer     : DKH picture change effects                    
  Yorick L. A. Schmerwitz: GMF and freeze-and-release deltaSCF, NEB S-IDPP initial path                    
  Kantharuban Sivalingam : CASSCF convergence/infrastructure, NEVPT2, NEVPT3, NEVPT4(SD), FIC-MRCI and CEPA variants
  Bernardo de Souza      : ESD, SOC TD-DFT                               
  Georgi L. Stoychev     : AutoAux, RI-MP2 NMR, DLPNO-MP2 response, X2C  
  Van Anh Tran           : RI-MP2 g-tensors                              
  Willem Van den Heuvel  : Paramagnetic NMR                              
  Zikuan Wang            : NOTCH, Electric field optimization            
  Frank Wennmohs         : Technical directorship and infrastructure     
  Hang Xu                : AUTO-CI-Response properties                   
                                                                         
[FACCTs GmbH]                                                            
  Markus Bursch, Nicolas Foglia, Miquel Garcia-Rates, Ingolf Harden, Hagen Neugebauer, Anastasios Papadopoulos, 
  Christoph Riplinger, Bernardo de Souza, Georgi L. Stoychev                                                    
                                                                 
  APM, various basis sets, CI-OPT, improved COSX, DLPNO-Multilevel,           
  DOCKER, DRACO, updates on ESD, Fragmentator, GOAT, IRC, LR-CPCM, L-BFGS, MBIS, meta-GGA TD-DFT gradient, ML-optimized integration grids, 
  MM, NACMEs, nearIR, NEB, NEB-TS, NL-DFT gradient (VV10), 2- and 3-layer-ONIOM, interface openCOSMO-RS, QMMM,   
  Crystal-QMMM, RESP, rigid body optimization, SF, symmetry and pop. for TD-DFT, various functionals, SOLVATOR                                   
                                                                         
[Other institutions]                                                     
  V. Asgeirsson          : NEB                                           
  Christoph Bannwarth    : sTDA-DFT, sTD-DFT, PBEh-3c, B97-3c, D3        
  Giovanni Bistoni       : ETS/NOCV, ADLD/ADEX, COVALED                  
  Martin Brehm           : Molecular dynamics                            
  Ronald Cardenas        : ETS/NOCV                                      
  Martina Colucci        : COVALED                                       
  Sebastian Ehlert       : rSCAN, r2SCAN, r2SCAN-3c, D4, dhf basis sets  
  Marvin Friede          : D4 for Fr, Ra, Ac-Lr                          
  Lars Goerigk           : TD-DFT with DH, B97 family of functionals     
  Stefan Grimme          : VdW corrections, initial TS optimization, DFT functionals, gCP, sTDA/sTD-DF 
  Waldemar Hujo          : DFT-NL                                        
  H. Jonsson             : NEB                                           
  Holger Kruse           : gCP                                           
  Marcel Mueller         : wB97X-3c, vDZP basis set                      
  Hagen Neugebauer       : wr2SCAN, Native XTB                           
  Gianluca Regni         : ADLD/ADEX                                     
  Tobias Risthaus        : pre 6.0 range-separated hybrid DFT and stability analysis
  Lukas Wittmann         : regularized MP2, r2SCAN double-hybrids, wr2SCAN        
                                                                         
We gratefully acknowledge several colleagues who have allowed us to      
interface, adapt or use parts of their codes:                            
  Ed Valeev, F. Pavosevic, A. Kumar             : LibInt (2-el integral package), F12 methods 
  Garnet Chan, S. Sharma, J. Yang, R. Olivares  : DMRG                   
  Ulf Ekstrom                                   : XCFun DFT Library      
  Mihaly Kallay                                 : mrcc  (arbitrary order and MRCC methods)
  Frank Weinhold                                : gennbo (NPA and NBO analysis)           
  Simon Mueller                                 : openCOSMO-RS                            
  Christopher J. Cramer and Donald G. Truhlar   : smd solvation model                     
  S Lehtola, MJT Oliveira, MAL Marques          : LibXC Library                           
  Liviu Ungur et al                             : ANISO software                          


 Your calculation uses the libint2 library for the computation of 2-el integrals
 For citations please refer to: http://libint.valeyev.net

 Your ORCA version has been built with support for libXC version: 7.0.0
 For citations please refer to: https://libxc.gitlab.io

 This ORCA versions uses:
   CBLAS   interface :  Fast vector & matrix operations
   LAPACKE interface :  Fast linear algebra routines
   SCALAPACK package :  Parallel linear algebra routines
   Shared memory     :  Shared parallel matrices
   BLAS/LAPACK       :  OpenBLAS 0.3.29  USE64BITINT DYNAMIC_ARCH NO_AFFINITY Haswell SINGLE_THREADED
        Core in use  :  Haswell
   Copyright (c) 2011-2014, The OpenBLAS Project


  ***********************************
  * Starting time: Tue Sep  2 14:10:36 2025
  * Host name:     chemlab03
  * Process ID:    117262
  * Working dir.:  /home/vivek/mm-project/vivek/xtb-goat/MP2-opt/i/3
  ***********************************



***************************************
The coordinates will be read from file: /home/vivek/mm-project/vivek/xtb-goat/xtb-goat/i/I_CONF/3.xyz
***************************************


================================================================================

----- Orbital basis set information -----
Your calculation utilizes the basis: 6-31G**
   H-He, Li-Ne : W. J. Hehre, R. Ditchfield and J.A. Pople, J. Chem. Phys. 56, 2257 (1972).
                 Note: He and Ne are unpublished basis sets taken from the Gaussian program.
                 Note: Li and B from J. D. Dill and J. A. Pople, J. Chem. Phys. 62, 2921 (1975).
   Na - Ar     : M. M. Francl, W. J. Pietro, W. J. Hehre, J. S. Binkley, M. S. Gordon, 
                 D. J. DeFrees and J. A. Pople, J. Chem. Phys. 77, 3654 (1982).
   K - Zn      : V. A. Rassolov, J. A. Pople, M. A. Ratner, and T. L. Windus, J. Chem. Phys. 109, 1223 (1998).

================================================================================
                                        WARNINGS
                       Please study these warnings very carefully!
================================================================================


WARNING: The frozen-core approximation for MP2-gradient calculations is turned on by default.

WARNING: Geometry Optimization
  ===> : Switching off AutoStart
         For restart on a previous wavefunction, please use MOREAD

WARNING: Post HF methods need fully converged wavefunctions
  ===> : Setting SCFConvForced true
         You can overwrite this default with %scf ConvForced false 


================================================================================
                                       INPUT FILE
================================================================================
NAME = 3.inp
|  1> ! MP2 6-31G** opt
|  2> 
|  3> * xyzfile 0 1 /home/vivek/mm-project/vivek/xtb-goat/xtb-goat/i/I_CONF/3.xyz
|  4> 
|  5>                          ****END OF INPUT****
================================================================================

                       *****************************
                       * Geometry Optimization Run *
                       *****************************

Geometry optimization settings:
Update method            Update   .... BFGS
Choice of coordinates    CoordSys .... (2022) Redundant Internals
Initial Hessian          InHess   .... Almloef's Model
Max. no of cycles        MaxIter  .... 66

Convergence Tolerances:
Energy Change            TolE     ....  5.0000e-06 Eh
Max. Gradient            TolMAXG  ....  3.0000e-04 Eh/bohr
RMS Gradient             TolRMSG  ....  1.0000e-04 Eh/bohr
Max. Displacement        TolMAXD  ....  4.0000e-03 bohr
RMS Displacement         TolRMSD  ....  2.0000e-03 bohr
Strict Convergence                .... False

------------------------------------------------------------------------------
                        ORCA OPTIMIZATION COORDINATE SETUP
------------------------------------------------------------------------------

The optimization will be done in redundant internal coordinates (2022)
Making redundant internal coordinates   ...  (2022 redundants) done
Evaluating the initial hessian          ...  (Almloef) done
Evaluating the coordinates              ...  done
Calculating the B-matrix                .... done
Calculating the G-matrix                .... done
The number of degrees of freedom        ....   94

    -----------------------------------------------------------------
                    Redundant Internal Coordinates


    -----------------------------------------------------------------
         Definition                    Initial Value    Approx d2E/dq
    -----------------------------------------------------------------
      1. B(C   1,C   0)                  1.5242         0.381680   
      2. B(C   2,C   0)                  1.5323         0.370433   
      3. B(C   5,C   2)                  1.5486         0.348884   
      4. B(C   7,C   2)                  1.5289         0.375090   
      5. B(C   8,C   5)                  1.5217         0.385122   
      6. B(H   9,C   7)                  1.0885         0.362032   
      7. B(N  10,H   3)                  1.0149         0.425028   
      8. B(N  10,C   5)                  1.4511         0.447081   
      9. B(N  10,H   4)                  1.0154         0.424205   
     10. B(O  11,C   8)                  1.3391         0.674587   
     11. B(O  11,H   6)                  0.9711         0.499261   
     12. B(H  12,C   1)                  1.0875         0.363443   
     13. B(O  13,C   8)                  1.2036         1.110054   
     14. B(H  14,C   2)                  1.0947         0.353906   
     15. B(H  15,C   7)                  1.0876         0.363241   
     16. B(H  16,C   7)                  1.0874         0.363593   
     17. B(H  17,C   5)                  1.0948         0.353849   
     18. B(H  18,C   0)                  1.0911         0.358625   
     19. B(H  19,C   0)                  1.0922         0.357196   
     20. B(H  20,C   1)                  1.0869         0.364199   
     21. B(H  21,C   1)                  1.0877         0.363195   
     22. A(H  18,C   0,H  19)          107.6751         0.290283   
     23. A(C   1,C   0,C   2)          113.2596         0.364161   
     24. A(C   1,C   0,H  19)          108.5265         0.325032   
     25. A(C   2,C   0,H  18)          109.3626         0.323651   
     26. A(C   2,C   0,H  19)          108.1837         0.323439   
     27. A(C   1,C   0,H  18)          109.6701         0.325245   
     28. A(C   0,C   1,H  20)          111.4341         0.326071   
     29. A(H  20,C   1,H  21)          108.2304         0.291750   
     30. A(C   0,C   1,H  12)          110.1358         0.325960   
     31. A(H  12,C   1,H  20)          108.0459         0.291781   
     32. A(H  12,C   1,H  21)          108.4225         0.291654   
     33. A(C   0,C   1,H  21)          110.4776         0.325923   
     34. A(C   0,C   2,C   7)          110.4098         0.363078   
     35. A(C   0,C   2,C   5)          112.1255         0.358622   
     36. A(C   5,C   2,H  14)          105.2872         0.319797   
     37. A(C   0,C   2,H  14)          108.8634         0.322949   
     38. A(C   5,C   2,C   7)          111.3813         0.359386   
     39. A(C   7,C   2,H  14)          108.5625         0.323611   
     40. A(C   8,C   5,H  17)          107.5478         0.325008   
     41. A(C   2,C   5,H  17)          108.7129         0.319788   
     42. A(N  10,C   5,H  17)          107.8646         0.331105   
     43. A(C   2,C   5,C   8)          111.1742         0.361006   
     44. A(C   8,C   5,N  10)          111.9308         0.374343   
     45. A(C   2,C   5,N  10)          109.4861         0.368032   
     46. A(C   2,C   7,H   9)          110.8040         0.324820   
     47. A(H  15,C   7,H  16)          108.1497         0.291679   
     48. A(H   9,C   7,H  16)          108.3320         0.291526   
     49. A(C   2,C   7,H  16)          111.2010         0.325050   
     50. A(H   9,C   7,H  15)          108.1650         0.291482   
     51. A(C   2,C   7,H  15)          110.0900         0.324998   
     52. A(C   5,C   8,O  13)          124.3852         0.439559   
     53. A(C   5,C   8,O  11)          113.2070         0.402186   
     54. A(O  11,C   8,O  13)          122.3904         0.483705   
     55. A(H   3,N  10,H   4)          106.5951         0.301434   
     56. A(H   4,N  10,C   5)          109.5650         0.338309   
     57. A(H   3,N  10,C   5)          110.2418         0.338419   
     58. A(H   6,O  11,C   8)          110.3209         0.372915   
     59. D(H  20,C   1,C   0,H  19)    177.5885         0.011605   
     60. D(H  12,C   1,C   0,H  18)    -59.6832         0.011605   
     61. D(H  12,C   1,C   0,H  19)     57.6941         0.011605   
     62. D(H  12,C   1,C   0,C   2)    177.8448         0.011605   
     63. D(H  20,C   1,C   0,H  18)     60.2113         0.011605   
     64. D(H  20,C   1,C   0,C   2)    -62.2607         0.011605   
     65. D(C   5,C   2,C   0,C   1)     73.7965         0.010968   
     66. D(C   7,C   2,C   0,H  19)    -41.0239         0.010968   
     67. D(C   7,C   2,C   0,H  18)     75.9876         0.010968   
     68. D(C   7,C   2,C   0,C   1)   -161.3697         0.010968   
     69. D(C   5,C   2,C   0,H  18)    -48.8463         0.010968   
     70. D(C   5,C   2,C   0,H  19)   -165.8578         0.010968   
     71. D(C   8,C   5,C   2,H  14)   -158.9353         0.010000   
     72. D(C   8,C   5,C   2,C   7)    -41.4564         0.010000   
     73. D(C   8,C   5,C   2,C   0)     82.8391         0.010000   
     74. D(N  10,C   5,C   2,H  14)    -34.7461         0.010000   
     75. D(N  10,C   5,C   2,C   7)     82.7328         0.010000   
     76. D(N  10,C   5,C   2,C   0)   -152.9717         0.010000   
     77. D(H  15,C   7,C   2,H  14)    -53.5737         0.011229   
     78. D(H  15,C   7,C   2,C   5)   -169.0513         0.011229   
     79. D(H  15,C   7,C   2,C   0)     65.6914         0.011229   
     80. D(H   9,C   7,C   2,H  14)   -173.1820         0.011229   
     81. D(H   9,C   7,C   2,C   5)     71.3404         0.011229   
     82. D(H   9,C   7,C   2,C   0)    -53.9169         0.011229   
     83. D(O  13,C   8,C   5,N  10)    -15.5032         0.011050   
     84. D(O  13,C   8,C   5,C   2)    107.2891         0.011050   
     85. D(O  11,C   8,C   5,H  17)     44.6982         0.011050   
     86. D(O  11,C   8,C   5,N  10)    163.0026         0.011050   
     87. D(O  11,C   8,C   5,C   2)    -74.2052         0.011050   
     88. D(H   3,N  10,C   5,C   8)    -58.4707         0.017049   
     89. D(H   3,N  10,C   5,C   2)    177.7837         0.017049   
     90. D(H   4,N  10,C   5,C   8)     58.5372         0.017049   
     91. D(H   4,N  10,C   5,C   2)    -65.2084         0.017049   
     92. D(H   3,N  10,C   5,H  17)     59.6451         0.017049   
     93. D(H   6,O  11,C   8,O  13)     -1.3023         0.033846   
     94. D(H   6,O  11,C   8,C   5)   -179.8420         0.033846   
    -----------------------------------------------------------------

Number of atoms                         .... 22
Number of degrees of freedom            .... 94


         *************************************************************
         *                GEOMETRY OPTIMIZATION CYCLE   1            *
         *************************************************************
---------------------------------
CARTESIAN COORDINATES (ANGSTROEM)
---------------------------------
  C     -9.577173    4.473218   -0.530054
  C    -10.459373    4.029667    0.630998
  C     -8.263555    5.120450   -0.079011
  H     -5.728757    4.034755    1.815499
  H     -5.800787    5.409434    0.946753
  C     -7.257306    4.077999    0.467763
  H     -6.693376    2.121221   -2.055245
  C     -7.654366    5.939518   -1.217232
  C     -6.489313    3.409598   -0.663184
  H     -7.545365    5.333083   -2.114607
  N     -6.370044    4.716073    1.422400
  O     -7.223302    2.523014   -1.347650
  H    -11.391307    3.613671    0.255406
  O     -5.331754    3.620540   -0.916351
  H     -8.469662    5.791060    0.761360
  H     -8.296752    6.784387   -1.454904
  H     -6.675035    6.324984   -0.943910
  H     -7.813207    3.296758    0.996110
  H     -9.357681    3.618589   -1.171902
  H    -10.129388    5.202734   -1.126522
  H     -9.969896    3.269094    1.233771
  H    -10.694684    4.874439    1.274439

----------------------------
CARTESIAN COORDINATES (A.U.)
----------------------------
  NO LB      ZA    FRAG     MASS         X           Y           Z
   0 C     6.0000    0    12.011  -18.098234    8.453156   -1.001656
   1 C     6.0000    0    12.011  -19.765350    7.614967    1.192413
   2 C     6.0000    0    12.011  -15.615857    9.676249   -0.149309
   3 H     1.0000    0     1.008  -10.825781    7.624582    3.430795
   4 H     1.0000    0     1.008  -10.961899   10.222349    1.789104
   5 C     6.0000    0    12.011  -13.714321    7.706302    0.883943
   6 H     1.0000    0     1.008  -12.648647    4.008526   -3.883850
   7 C     6.0000    0    12.011  -14.464655   11.224062   -2.300234
   8 C     6.0000    0    12.011  -12.263025    6.443207   -1.253235
   9 H     1.0000    0     1.008  -14.258674   10.078066   -3.996028
  10 N     7.0000    0    14.007  -12.037639    8.912087    2.687946
  11 O     8.0000    0    15.999  -13.650062    4.767805   -2.546689
  12 H     1.0000    0     1.008  -21.526451    6.828849    0.482648
  13 O     8.0000    0    15.999  -10.075555    6.841829   -1.731653
  14 H     1.0000    0     1.008  -16.005341   10.943517    1.438761
  15 H     1.0000    0     1.008  -15.678589   12.820634   -2.749369
  16 H     1.0000    0     1.008  -12.613988   11.952488   -1.783731
  17 H     1.0000    0     1.008  -14.764821    6.229970    1.882375
  18 H     1.0000    0     1.008  -17.683454    6.838142   -2.214574
  19 H     1.0000    0     1.008  -19.141769    9.831742   -2.128817
  20 H     1.0000    0     1.008  -18.840374    6.177693    2.331489
  21 H     1.0000    0     1.008  -20.210024    9.211354    2.408340

--------------------------------
INTERNAL COORDINATES (ANGSTROEM)
--------------------------------
 C      0   0   0     0.000000000000     0.00000000     0.00000000
 C      1   0   0     1.524156838205     0.00000000     0.00000000
 C      1   2   0     1.532299158224   113.25961997     0.00000000
 H      3   1   2     3.345609893068   132.77599148    58.19028194
 H      4   3   1     1.627774500654    52.42491075   171.81391063
 C      3   1   2     1.548613297881   112.12551135    73.79645524
 H      6   3   1     3.242309133501   104.15383962    61.61877361
 C      3   1   2     1.528898160318   110.40975340   198.63032597
 C      6   3   1     1.521713683409   111.17421686    82.83908274
 H      8   3   1     1.088543678899   110.80395140   306.08311897
 N      4   3   1     1.014874712021    23.66009152   211.96957238
 O      7   6   3     0.971056131917    24.26418598   292.56739614
 H      2   1   3     1.087484797206   110.13575997   177.84479323
 O      9   6   3     1.203550163822   124.38516977   107.28909365
 H      3   1   2     1.094723207355   108.86336839   317.71288460
 H      8   3   1     1.087635789215   110.08997950    65.69144144
 H      8   3   1     1.087372122720   111.20099158   185.53498290
 H      6   3   1     1.094766693583   108.71286968   324.63677127
 H      1   2   3     1.091117176266   109.67010461   122.47202904
 H      1   2   3     1.092203909517   108.52649018   239.84926819
 H      2   1   3     1.086918805232   111.43414739   297.73926364
 H      2   1   3     1.087670397788   110.47761347    58.09443776

---------------------------
INTERNAL COORDINATES (A.U.)
---------------------------
 C      0   0   0     0.000000000000     0.00000000     0.00000000
 C      1   0   0     2.880239009350     0.00000000     0.00000000
 C      1   2   0     2.895625764281   113.25961997     0.00000000
 H      3   1   2     6.322286448836   132.77599148    58.19028194
 H      4   3   1     3.076048014017    52.42491075   171.81391063
 C      3   1   2     2.926455020345   112.12551135    73.79645524
 H      6   3   1     6.127076303829   104.15383962    61.61877361
 C      3   1   2     2.889198809656   110.40975340   198.63032597
 C      6   3   1     2.875622115883   111.17421686    82.83908274
 H      8   3   1     2.057049437931   110.80395140   306.08311897
 N      4   3   1     1.917835265961    23.66009152   211.96957238
 O      7   6   3     1.835030149989    24.26418598   292.56739614
 H      2   1   3     2.055048441523   110.13575997   177.84479323
 O      9   6   3     2.274380198059   124.38516977   107.28909365
 H      3   1   2     2.068727054348   108.86336839   317.71288460
 H      8   3   1     2.055333775068   110.08997950    65.69144144
 H      8   3   1     2.054835517601   111.20099158   185.53498290
 H      6   3   1     2.068809231411   108.71286968   324.63677127
 H      1   2   3     2.061912643161   109.67010461   122.47202904
 H      1   2   3     2.063966271385   108.52649018   239.84926819
 H      2   1   3     2.053978871697   111.43414739   297.73926364
 H      2   1   3     2.055399175793   110.47761347    58.09443776

---------------------
BASIS SET INFORMATION
---------------------
There are 4 groups of distinct atoms

 Group   1 Type C   : 10s4p1d contracted to 3s2p1d pattern {631/31/1}
 Group   2 Type H   : 4s1p contracted to 2s1p pattern {31/1}
 Group   3 Type N   : 10s4p1d contracted to 3s2p1d pattern {631/31/1}
 Group   4 Type O   : 10s4p1d contracted to 3s2p1d pattern {631/31/1}

Atom   0C    basis set group =>   1
Atom   1C    basis set group =>   1
Atom   2C    basis set group =>   1
Atom   3H    basis set group =>   2
Atom   4H    basis set group =>   2
Atom   5C    basis set group =>   1
Atom   6H    basis set group =>   2
Atom   7C    basis set group =>   1
Atom   8C    basis set group =>   1
Atom   9H    basis set group =>   2
Atom  10N    basis set group =>   3
Atom  11O    basis set group =>   4
Atom  12H    basis set group =>   2
Atom  13O    basis set group =>   4
Atom  14H    basis set group =>   2
Atom  15H    basis set group =>   2
Atom  16H    basis set group =>   2
Atom  17H    basis set group =>   2
Atom  18H    basis set group =>   2
Atom  19H    basis set group =>   2
Atom  20H    basis set group =>   2
Atom  21H    basis set group =>   2
------------------------------------------------------------------------------
                             ORCA STARTUP CALCULATIONS
------------------------------------------------------------------------------
------------------------------------------------------------------------------
                   ___                                                        
                  /   \      - P O W E R E D   B Y -                         
                 /     \                                                     
                 |  |  |   _    _      __       _____    __    __             
                 |  |  |  | |  | |    /  \     |  _  \  |  |  /  |          
                  \  \/   | |  | |   /    \    | | | |  |  | /  /          
                 / \  \   | |__| |  /  /\  \   | |_| |  |  |/  /          
                |  |  |   |  __  | /  /__\  \  |    /   |      \           
                |  |  |   | |  | | |   __   |  |    \   |  |\   \          
                \     /   | |  | | |  |  |  |  | |\  \  |  | \   \       
                 \___/    |_|  |_| |__|  |__|  |_| \__\ |__|  \__/        
                                                                              
                      - O R C A' S   B I G   F R I E N D -                    
                                      &                                       
                       - I N T E G R A L  F E E D E R -                       
                                                                              
 v1 FN, 2020, v2 2021, v3 2022-2024                                           
------------------------------------------------------------------------------


----------------------
SHARK INTEGRAL PACKAGE
----------------------

Number of atoms                             ...     22
Number of basis functions                   ...    191
Number of shells                            ...     93
Maximum angular momentum                    ...      2
Integral batch strategy                     ... SHARK/LIBINT Hybrid
RI-J (if used) integral strategy            ... SPLIT-RIJ (Revised 2003 algorithm where possible)
Printlevel                                  ...      1
Contraction scheme used                     ... SEGMENTED contraction
Prescreening option                         ... SCHWARTZ
   Thresh                                   ... 2.500e-11
   Tcut                                     ... 2.500e-12
   Tpresel                                  ... 2.500e-12 
Coulomb Range Separation                    ... NOT USED
Exchange Range Separation                   ... NOT USED
Multipole approximations                    ... NOT USED
Finite Nucleus Model                        ... NOT USED
CABS basis                                  ... NOT available
Auxiliary Coulomb fitting basis             ... NOT available
Auxiliary J/K fitting basis                 ... NOT available
Auxiliary Correlation fitting basis         ... NOT available
Auxiliary 'external' fitting basis          ... NOT available

Checking pre-screening integrals            ... done (  0.0 sec) Dimension = 93
   => SHARK Basis and OBASIS are compatible. Storing Pre-screening
Shell pair information
Shell pair cut-off parameter TPreSel        ...   2.5e-12
Total number of shell pairs                 ...      4371
Shell pairs after pre-screening             ...      3992
Total number of primitive shell pairs       ...     20328
Primitive shell pairs kept                  ...     12399
          la=0 lb=0:   1314 shell pairs
          la=1 lb=0:   1481 shell pairs
          la=1 lb=1:    445 shell pairs
          la=2 lb=0:    447 shell pairs
          la=2 lb=1:    261 shell pairs
          la=2 lb=2:     44 shell pairs

Checking whether 4 symmetric matrices of dimension 191 fit in memory
:Max Core in MB      =   4096.00
 MB in use           =      6.53
 MB left             =   4089.47
 MB needed           =      0.56
 Data fit in memory  = YES
Calculating Nuclear repulsion               ... done (  0.0 sec) ENN=    498.219947106298 Eh

Diagonalization of the overlap matrix:
Smallest eigenvalue                        ... 2.740e-03
Time for diagonalization                   ...    0.002 sec
Threshold for overlap eigenvalues          ... 1.000e-07
Number of eigenvalues below threshold      ... 0
Time for construction of square roots      ...    0.001 sec
Total time needed                          ...    0.003 sec

-------------------
DFT GRID GENERATION
-------------------

General Integration Accuracy     IntAcc      ... 4.388
Radial Grid Type                 RadialGrid  ... OptM3 with GC (2021)
Angular Grid (max. ang.)         AngularGrid ... 4 (Lebedev-302)
Angular grid pruning method      GridPruning ... 4 (adaptive)
Weight generation scheme         WeightScheme... mBecke (2022)
Basis function cutoff            BFCut       ... 1.0000e-11
Integration weight cutoff        WCut        ... 1.0000e-14
Partially contracted basis set               ... off
Rotationally invariant grid construction     ... off
Angular grids for H and He will be reduced by one unit

Total number of grid points                  ...    95541
Total number of batches                      ...     1502
Average number of points per batch           ...       63
Average number of grid points per atom       ...     4343
Grids setup in   0.4 sec
Initializing property integral containers    ... done (  0.0 sec)

SHARK setup successfully completed in   0.4 seconds

Maximum memory used throughout the entire STARTUP-calculation: 38.5 MB
-------------------------------------------------------------------------------
                                 ORCA GUESS
                   Start orbitals & Density for SCF / CASSCF
-------------------------------------------------------------------------------

------------
SCF SETTINGS
------------
Hamiltonian:
 Ab initio Hamiltonian  Method          .... Hartree-Fock(GTOs)


General Settings:
 Integral files         IntName         .... 3
 Hartree-Fock type      HFTyp           .... RHF
 Total Charge           Charge          ....    0
 Multiplicity           Mult            ....    1
 Number of Electrons    NEL             ....   72
 Basis Dimension        Dim             ....  191
 Nuclear Repulsion      ENuc            ....    498.2199471063 Eh

Convergence Acceleration:
 AO-DIIS                CNVDIIS         .... on
   Start iteration      DIISMaxIt       ....    12
   Startup error        DIISStart       ....  0.200000
   # of expansion vecs  DIISMaxEq       ....     5
   Bias factor          DIISBfac        ....   1.050
   Max. coefficient     DIISMaxC        ....  10.000
 MO-DIIS                CNVKDIIS        .... off
 Trust-Rad. Augm. Hess. CNVTRAH         .... auto
   Auto Start mean grad. ratio tolernc. ....  1.125000
   Auto Start start iteration           ....    50
   Auto Start num. interpolation iter.  ....    10
   Max. Number of Micro iterations      ....    24
   Max. Number of Macro iterations      .... Maxiter - #DIIS iter
   Number of Davidson start vectors     ....     2
   Converg. threshold    (grad. norm)   ....   1.000e-05
   Grad. Scal. Fac. for Micro threshold ....   0.100
   Minimum threshold for Micro iter.    ....   1.000e-02
   NR start threshold (gradient norm)   ....   1.000e-04
   Initial trust radius                 ....   0.400
   Minimum AH scaling param. (alpha)    ....   1.000
   Maximum AH scaling param. (alpha)    .... 1000.000
   Quad. conv. algorithm                .... NR
   White noise on init. David. guess    .... on
   Maximum white noise                  ....   0.010
   Pseudo random numbers                .... off
   Inactive MOs                         .... canonical
   Orbital update algorithm             .... Taylor
   Preconditioner                       .... Diag
   Full preconditioner red. dimension   ....   250
 SOSCF                 CNVSOSCF           .... on
   Start iteration     SOSCFMaxIt         ....   150
   Startup grad/error  SOSCFStart         ....  0.003300
   Hessian update      SOSCFHessUp        .... L-BFGS
   Autom. constraints  SOSCFAutoConstrain .... off
 Level Shifting         CNVShift        .... on
   Level shift para.    LevelShift      ....    0.2500
   Turn off err/grad.   ShiftErr        ....    0.0010
 Zerner damping         CNVZerner       .... off
 Static damping         CNVDamp         .... on
   Fraction old density DampFac         ....    0.7000
   Max. Damping (<1)    DampMax         ....    0.9800
   Min. Damping (>=0)   DampMin         ....    0.0000
   Turn off err/grad.   DampErr         ....    0.1000

SCF Procedure:
 Maximum # iterations   MaxIter         ....   125
 SCF integral mode      SCFMode         .... Direct
   Integral package                     .... SHARK and LIBINT hybrid scheme
 Reset frequency        DirectResetFreq ....    20
 Integral Threshold     Thresh          ....  2.500e-11 Eh
 Primitive CutOff       TCut            ....  2.500e-12 Eh

Convergence Tolerance:
 Convergence Check Mode ConvCheckMode   .... Total+1el-Energy
 Convergence forced     ConvForced      .... 1
 Energy Change          TolE            ....  1.000e-08 Eh
 1-El. energy change                    ....  1.000e-05 Eh
 Orbital Gradient       TolG            ....  1.000e-05
 Orbital Rotation angle TolX            ....  1.000e-05
 DIIS Error             TolErr          ....  5.000e-07

------------------------------
INITIAL GUESS: MODEL POTENTIAL
------------------------------
Loading Hartree-Fock densities                     ... done
Calculating cut-offs                               ... done
Initializing the effective Hamiltonian             ... done
Setting up the integral package (SHARK)            ... done
Starting the Coulomb interaction                   ... done (   0.1 sec)
Making the grid                                    ... done (   0.1 sec)
Mapping shells                                     ... done
Starting the XC term evaluation                    ... done (   0.1 sec)
Transforming the Hamiltonian                       ... done (   0.0 sec)
Diagonalizing the Hamiltonian                      ... done (   0.0 sec)
Back transforming the eigenvectors                 ... done (   0.0 sec)
Now organizing SCF variables                       ... done
                      ------------------
                      INITIAL GUESS DONE (   0.2 sec)
                      ------------------
             **** ENERGY FILE WAS UPDATED (3.en.tmp) ****
Finished Guess after   0.3 sec
Maximum memory used throughout the entire GUESS-calculation: 11.9 MB

-------------------------------------------------------------------------------------------
                                      ORCA LEAN-SCF
                              memory conserving SCF solver
-------------------------------------------------------------------------------------------

----------------------------------------D-I-I-S--------------------------------------------
Iteration    Energy (Eh)           Delta-E    RMSDP     MaxDP     DIISErr   Damp  Time(sec)
-------------------------------------------------------------------------------------------
               ***  Starting incremental Fock matrix formation  ***
    1    -438.5398370221418531     0.00e+00  2.46e-03  6.09e-02  2.48e-01  0.700   2.1
    2    -438.7019063463135922    -1.62e-01  1.87e-03  4.39e-02  1.54e-01  0.700   2.0
                               ***Turning on AO-DIIS***
    3    -438.7973179282145679    -9.54e-02  1.02e-03  2.21e-02  8.67e-02  0.700   1.9
    4    -438.8572411193750327    -5.99e-02  2.31e-03  4.62e-02  5.86e-02  0.000   1.9
    5    -438.9894766774638697    -1.32e-01  2.74e-04  4.34e-03  4.41e-03  0.000   2.0
                              *** Initializing SOSCF ***
---------------------------------------S-O-S-C-F--------------------------------------
Iteration    Energy (Eh)           Delta-E    RMSDP     MaxDP     MaxGrad    Time(sec)
--------------------------------------------------------------------------------------
    6    -438.9899600933544548    -4.83e-04  1.33e-04  2.31e-03  2.23e-03     1.8
               *** Restarting incremental Fock matrix formation ***
    7    -438.9900666542084195    -1.07e-04  7.82e-05  1.74e-03  1.40e-03     2.1
    8    -438.9900968303894047    -3.02e-05  7.40e-05  1.70e-03  4.57e-04     1.7
    9    -438.9901076216952447    -1.08e-05  1.24e-05  1.90e-04  1.82e-04     1.7
   10    -438.9901082802204542    -6.59e-07  8.12e-06  1.50e-04  4.57e-05     1.6
   11    -438.9901084140175840    -1.34e-07  1.63e-06  4.11e-05  1.05e-05     1.5
   12    -438.9901084247593985    -1.07e-08  4.45e-07  1.20e-05  3.63e-06     1.3
   13    -438.9901084269562830    -2.20e-09  1.62e-07  3.56e-06  1.25e-06     1.2
                 **** Energy Check signals convergence ****

               *****************************************************
               *                     SUCCESS                       *
               *           SCF CONVERGED AFTER  13 CYCLES          *
               *****************************************************

             **** ENERGY FILE WAS UPDATED (3.en.tmp) ****

----------------
TOTAL SCF ENERGY
----------------

Total Energy       :       -438.99010842952163 Eh          -11945.52815 eV

Components:
Nuclear Repulsion  :        498.21994710629798 Eh           13557.25400 eV
Electronic Energy  :       -937.21005553581961 Eh          -25502.78215 eV
One Electron Energy:      -1586.97848702804799 Eh          -43183.88006 eV
Two Electron Energy:        649.76843149222839 Eh           17681.09791 eV

Virial components:
Potential Energy   :       -877.61469827617600 Eh          -23881.11003 eV
Kinetic Energy     :        438.62458984665437 Eh           11935.58188 eV
Virial Ratio       :          2.00083332898184

---------------
SCF CONVERGENCE
---------------

  Last Energy change         ...    2.1969e-09  Tolerance :   1.0000e-08
  Last MAX-Density change    ...    3.5600e-06  Tolerance :   1.0000e-07
  Last RMS-Density change    ...    1.6206e-07  Tolerance :   5.0000e-09
  Last DIIS Error            ...    2.2251e-03  Tolerance :   5.0000e-07
  Last Orbital Gradient      ...    1.2540e-06  Tolerance :   1.0000e-05
  Last Orbital Rotation      ...    2.1044e-06  Tolerance :   1.0000e-05


----------------
ORBITAL ENERGIES
----------------

  NO   OCC          E(Eh)            E(eV) 
   0   2.0000     -20.619664      -561.0896 
   1   2.0000     -20.553572      -559.2911 
   2   2.0000     -15.544850      -422.9969 
   3   2.0000     -11.382341      -309.7293 
   4   2.0000     -11.269556      -306.6602 
   5   2.0000     -11.232054      -305.6397 
   6   2.0000     -11.216498      -305.2164 
   7   2.0000     -11.215692      -305.1945 
   8   2.0000     -11.210889      -305.0638 
   9   2.0000      -1.469659       -39.9915 
  10   2.0000      -1.362433       -37.0737 
  11   2.0000      -1.196592       -32.5609 
  12   2.0000      -1.086530       -29.5660 
  13   2.0000      -0.996201       -27.1080 
  14   2.0000      -0.953627       -25.9495 
  15   2.0000      -0.868866       -23.6430 
  16   2.0000      -0.828272       -22.5384 
  17   2.0000      -0.768264       -20.9055 
  18   2.0000      -0.704782       -19.1781 
  19   2.0000      -0.698903       -19.0181 
  20   2.0000      -0.666495       -18.1363 
  21   2.0000      -0.643956       -17.5229 
  22   2.0000      -0.616930       -16.7875 
  23   2.0000      -0.601221       -16.3601 
  24   2.0000      -0.588997       -16.0274 
  25   2.0000      -0.576392       -15.6844 
  26   2.0000      -0.563502       -15.3337 
  27   2.0000      -0.548547       -14.9267 
  28   2.0000      -0.518033       -14.0964 
  29   2.0000      -0.501221       -13.6389 
  30   2.0000      -0.485808       -13.2195 
  31   2.0000      -0.472194       -12.8490 
  32   2.0000      -0.460206       -12.5228 
  33   2.0000      -0.454030       -12.3548 
  34   2.0000      -0.445079       -12.1112 
  35   2.0000      -0.398956       -10.8561 
  36   0.0000       0.181896         4.9496 
  37   0.0000       0.216677         5.8961 
  38   0.0000       0.230789         6.2801 
  39   0.0000       0.246259         6.7010 
  40   0.0000       0.259124         7.0511 
  41   0.0000       0.287418         7.8210 
  42   0.0000       0.298805         8.1309 
  43   0.0000       0.304464         8.2849 
  44   0.0000       0.319258         8.6875 
  45   0.0000       0.328694         8.9442 
  46   0.0000       0.339409         9.2358 
*Only the first 10 virtual orbitals were printed.

                    ********************************
                    * MULLIKEN POPULATION ANALYSIS *
                    ********************************

-----------------------
MULLIKEN ATOMIC CHARGES
-----------------------
   0 C :   -0.222708
   1 C :   -0.329592
   2 C :   -0.134742
   3 H :    0.274083
   4 H :    0.279763
   5 C :   -0.031497
   6 H :    0.371489
   7 C :   -0.344798
   8 C :    0.793981
   9 H :    0.115372
  10 N :   -0.677206
  11 O :   -0.638001
  12 H :    0.114774
  13 O :   -0.590788
  14 H :    0.150564
  15 H :    0.122383
  16 H :    0.119691
  17 H :    0.157078
  18 H :    0.139237
  19 H :    0.110654
  20 H :    0.107188
  21 H :    0.113076
Sum of atomic charges:    0.0000000

--------------------------------
MULLIKEN REDUCED ORBITAL CHARGES
--------------------------------
  0 C s       :     3.238651  s :     3.238651
      pz      :     0.977110  p :     2.935107
      px      :     0.915812
      py      :     1.042185
      dz2     :     0.004712  d :     0.048950
      dxz     :     0.011835
      dyz     :     0.014525
      dx2y2   :     0.007393
      dxy     :     0.010484

  1 C s       :     3.252051  s :     3.252051
      pz      :     0.984779  p :     3.035243
      px      :     1.012528
      py      :     1.037937
      dz2     :     0.003654  d :     0.042297
      dxz     :     0.010395
      dyz     :     0.013782
      dx2y2   :     0.006316
      dxy     :     0.008150

  2 C s       :     3.239483  s :     3.239483
      pz      :     1.008639  p :     2.840944
      px      :     0.890948
      py      :     0.941357
      dz2     :     0.007822  d :     0.054315
      dxz     :     0.009506
      dyz     :     0.015979
      dx2y2   :     0.006753
      dxy     :     0.014255

  3 H s       :     0.699908  s :     0.699908
      pz      :     0.008176  p :     0.026009
      px      :     0.008897
      py      :     0.008935

  4 H s       :     0.694153  s :     0.694153
      pz      :     0.007266  p :     0.026084
      px      :     0.008005
      py      :     0.010813

  5 C s       :     3.201381  s :     3.201381
      pz      :     0.843410  p :     2.760577
      px      :     0.911264
      py      :     1.005903
      dz2     :     0.009725  d :     0.069539
      dxz     :     0.018531
      dyz     :     0.018307
      dx2y2   :     0.006541
      dxy     :     0.016435

  6 H s       :     0.587016  s :     0.587016
      pz      :     0.018163  p :     0.041494
      px      :     0.012273
      py      :     0.011058

  7 C s       :     3.255095  s :     3.255095
      pz      :     0.984105  p :     3.047548
      px      :     1.043002
      py      :     1.020440
      dz2     :     0.008560  d :     0.042156
      dxz     :     0.005193
      dyz     :     0.012142
      dx2y2   :     0.005381
      dxy     :     0.010880

  8 C s       :     2.953798  s :     2.953798
      pz      :     0.735280  p :     2.106626
      px      :     0.732340
      py      :     0.639006
      dz2     :     0.017620  d :     0.145595
      dxz     :     0.044164
      dyz     :     0.013831
      dx2y2   :     0.028941
      dxy     :     0.041039

  9 H s       :     0.871978  s :     0.871978
      pz      :     0.006872  p :     0.012650
      px      :     0.001888
      py      :     0.003889

 10 N s       :     3.602660  s :     3.602660
      pz      :     1.454929  p :     4.039694
      px      :     1.304932
      py      :     1.279833
      dz2     :     0.003967  d :     0.034853
      dxz     :     0.008743
      dyz     :     0.007996
      dx2y2   :     0.000947
      dxy     :     0.013200

 11 O s       :     3.838862  s :     3.838862
      pz      :     1.514225  p :     4.773924
      px      :     1.670033
      py      :     1.589666
      dz2     :     0.002006  d :     0.025216
      dxz     :     0.009202
      dyz     :     0.002441
      dx2y2   :     0.003740
      dxy     :     0.007828

 12 H s       :     0.872514  s :     0.872514
      pz      :     0.002673  p :     0.012713
      px      :     0.007118
      py      :     0.002921

 13 O s       :     3.875312  s :     3.875312
      pz      :     1.672180  p :     4.682774
      px      :     1.375345
      py      :     1.635249
      dz2     :     0.003692  d :     0.032702
      dxz     :     0.008749
      dyz     :     0.001146
      dx2y2   :     0.009461
      dxy     :     0.009655

 14 H s       :     0.837079  s :     0.837079
      pz      :     0.006295  p :     0.012358
      px      :     0.001716
      py      :     0.004347

 15 H s       :     0.864922  s :     0.864922
      pz      :     0.002200  p :     0.012695
      px      :     0.004293
      py      :     0.006201

 16 H s       :     0.867662  s :     0.867662
      pz      :     0.002224  p :     0.012646
      px      :     0.007704
      py      :     0.002719

 17 H s       :     0.830700  s :     0.830700
      pz      :     0.003164  p :     0.012222
      px      :     0.003625
      py      :     0.005432

 18 H s       :     0.847839  s :     0.847839
      pz      :     0.004287  p :     0.012924
      px      :     0.002143
      py      :     0.006494

 19 H s       :     0.876912  s :     0.876912
      pz      :     0.003950  p :     0.012434
      px      :     0.003581
      py      :     0.004903

 20 H s       :     0.880085  s :     0.880085
      pz      :     0.004104  p :     0.012728
      px      :     0.003259
      py      :     0.005365

 21 H s       :     0.874292  s :     0.874292
      pz      :     0.004386  p :     0.012632
      px      :     0.002148
      py      :     0.006099



                     *******************************
                     * LOEWDIN POPULATION ANALYSIS *
                     *******************************

----------------------
LOEWDIN ATOMIC CHARGES
----------------------
   0 C :   -0.117886
   1 C :   -0.182614
   2 C :   -0.057595
   3 H :    0.130454
   4 H :    0.131529
   5 C :   -0.025400
   6 H :    0.200663
   7 C :   -0.182263
   8 C :    0.229441
   9 H :    0.064357
  10 N :   -0.273835
  11 O :   -0.209209
  12 H :    0.065175
  13 O :   -0.311601
  14 H :    0.073946
  15 H :    0.068604
  16 H :    0.064675
  17 H :    0.079527
  18 H :    0.069163
  19 H :    0.060335
  20 H :    0.059738
  21 H :    0.062798

-------------------------------
LOEWDIN REDUCED ORBITAL CHARGES
-------------------------------
  0 C s       :     2.889155  s :     2.889155
      pz      :     1.049245  p :     3.136096
      px      :     1.017268
      py      :     1.069582
      dz2     :     0.009561  d :     0.092635
      dxz     :     0.023356
      dyz     :     0.025260
      dx2y2   :     0.014374
      dxy     :     0.020084

  1 C s       :     2.905382  s :     2.905382
      pz      :     1.057732  p :     3.201952
      px      :     1.064320
      py      :     1.079899
      dz2     :     0.007471  d :     0.075281
      dxz     :     0.019032
      dyz     :     0.024076
      dx2y2   :     0.010789
      dxy     :     0.013912

  2 C s       :     2.878804  s :     2.878804
      pz      :     1.048459  p :     3.071746
      px      :     1.006128
      py      :     1.017159
      dz2     :     0.015258  d :     0.107046
      dxz     :     0.019055
      dyz     :     0.030156
      dx2y2   :     0.014034
      dxy     :     0.028542

  3 H s       :     0.788203  s :     0.788203
      pz      :     0.025117  p :     0.081343
      px      :     0.028094
      py      :     0.028133

  4 H s       :     0.786486  s :     0.786486
      pz      :     0.024246  p :     0.081985
      px      :     0.025202
      py      :     0.032538

  5 C s       :     2.870477  s :     2.870477
      pz      :     0.978544  p :     3.015717
      px      :     0.996451
      py      :     1.040722
      dz2     :     0.020304  d :     0.139207
      dxz     :     0.037397
      dyz     :     0.036115
      dx2y2   :     0.012912
      dxy     :     0.032478

  6 H s       :     0.679033  s :     0.679033
      pz      :     0.050609  p :     0.120304
      px      :     0.037683
      py      :     0.032012

  7 C s       :     2.906381  s :     2.906381
      pz      :     1.054318  p :     3.200659
      px      :     1.077081
      py      :     1.069260
      dz2     :     0.015873  d :     0.075223
      dxz     :     0.009764
      dyz     :     0.021804
      dx2y2   :     0.009225
      dxy     :     0.018557

  8 C s       :     2.850621  s :     2.850621
      pz      :     0.849163  p :     2.603770
      px      :     0.985119
      py      :     0.769487
      dz2     :     0.039101  d :     0.316168
      dxz     :     0.095176
      dyz     :     0.027811
      dx2y2   :     0.063187
      dxy     :     0.090893

  9 H s       :     0.895630  s :     0.895630
      pz      :     0.020591  p :     0.040013
      px      :     0.006934
      py      :     0.012487

 10 N s       :     3.186944  s :     3.186944
      pz      :     1.448298  p :     4.025248
      px      :     1.306861
      py      :     1.270089
      dz2     :     0.006888  d :     0.061643
      dxz     :     0.015343
      dyz     :     0.014080
      dx2y2   :     0.003301
      dxy     :     0.022032

 11 O s       :     3.458952  s :     3.458952
      pz      :     1.486137  p :     4.702434
      px      :     1.651878
      py      :     1.564419
      dz2     :     0.004946  d :     0.047823
      dxz     :     0.014105
      dyz     :     0.009658
      dx2y2   :     0.006172
      dxy     :     0.012941

 12 H s       :     0.895263  s :     0.895263
      pz      :     0.008859  p :     0.039563
      px      :     0.021075
      py      :     0.009629

 13 O s       :     3.547590  s :     3.547590
      pz      :     1.645479  p :     4.706855
      px      :     1.461008
      py      :     1.600368
      dz2     :     0.007205  d :     0.057156
      dxz     :     0.014683
      dyz     :     0.001455
      dx2y2   :     0.019836
      dxy     :     0.013978

 14 H s       :     0.885900  s :     0.885900
      pz      :     0.018848  p :     0.040154
      px      :     0.006936
      py      :     0.014371

 15 H s       :     0.891525  s :     0.891525
      pz      :     0.007622  p :     0.039872
      px      :     0.013434
      py      :     0.018816

 16 H s       :     0.895194  s :     0.895194
      pz      :     0.007817  p :     0.040131
      px      :     0.022864
      py      :     0.009450

 17 H s       :     0.880316  s :     0.880316
      pz      :     0.010805  p :     0.040157
      px      :     0.012793
      py      :     0.016560

 18 H s       :     0.889635  s :     0.889635
      pz      :     0.013862  p :     0.041202
      px      :     0.007658
      py      :     0.019682

 19 H s       :     0.900603  s :     0.900603
      pz      :     0.012633  p :     0.039062
      px      :     0.011445
      py      :     0.014984

 20 H s       :     0.900407  s :     0.900407
      pz      :     0.012748  p :     0.039855
      px      :     0.010778
      py      :     0.016329

 21 H s       :     0.897631  s :     0.897631
      pz      :     0.013627  p :     0.039571
      px      :     0.007605
      py      :     0.018339



                      *****************************
                      * MAYER POPULATION ANALYSIS *
                      *****************************

  NA   - Mulliken gross atomic population
  ZA   - Total nuclear charge
  QA   - Mulliken gross atomic charge
  VA   - Mayer's total valence
  BVA  - Mayer's bonded valence
  FA   - Mayer's free valence

  ATOM       NA         ZA         QA         VA         BVA        FA
  0 C      6.2227     6.0000    -0.2227     3.7862     3.7862    -0.0000
  1 C      6.3296     6.0000    -0.3296     3.8579     3.8579    -0.0000
  2 C      6.1347     6.0000    -0.1347     3.7409     3.7409     0.0000
  3 H      0.7259     1.0000     0.2741     0.9061     0.9061    -0.0000
  4 H      0.7202     1.0000     0.2798     0.9058     0.9058     0.0000
  5 C      6.0315     6.0000    -0.0315     3.7413     3.7413    -0.0000
  6 H      0.6285     1.0000     0.3715     0.8729     0.8729     0.0000
  7 C      6.3448     6.0000    -0.3448     3.8474     3.8474     0.0000
  8 C      5.2060     6.0000     0.7940     3.6656     3.6656    -0.0000
  9 H      0.8846     1.0000     0.1154     0.9540     0.9540     0.0000
 10 N      7.6772     7.0000    -0.6772     2.7793     2.7793    -0.0000
 11 O      8.6380     8.0000    -0.6380     1.8200     1.8200     0.0000
 12 H      0.8852     1.0000     0.1148     0.9523     0.9523    -0.0000
 13 O      8.5908     8.0000    -0.5908     1.8898     1.8898     0.0000
 14 H      0.8494     1.0000     0.1506     0.9464     0.9464     0.0000
 15 H      0.8776     1.0000     0.1224     0.9538     0.9538     0.0000
 16 H      0.8803     1.0000     0.1197     0.9525     0.9525     0.0000
 17 H      0.8429     1.0000     0.1571     0.9410     0.9410     0.0000
 18 H      0.8608     1.0000     0.1392     0.9508     0.9508    -0.0000
 19 H      0.8893     1.0000     0.1107     0.9497     0.9497     0.0000
 20 H      0.8928     1.0000     0.1072     0.9521     0.9521     0.0000
 21 H      0.8869     1.0000     0.1131     0.9511     0.9511     0.0000

  Mayer bond orders larger than 0.100000
B(  0-C ,  1-C ) :   0.9721 B(  0-C ,  2-C ) :   0.9610 B(  0-C , 18-H ) :   0.9622 
B(  0-C , 19-H ) :   0.9766 B(  1-C , 12-H ) :   0.9781 B(  1-C , 20-H ) :   0.9747 
B(  1-C , 21-H ) :   0.9753 B(  2-C ,  5-C ) :   0.9482 B(  2-C ,  7-C ) :   0.9733 
B(  2-C , 14-H ) :   0.9657 B(  3-H , 10-N ) :   0.9096 B(  4-H , 10-N ) :   0.8996 
B(  5-C ,  8-C ) :   0.9085 B(  5-C , 10-N ) :   0.9997 B(  5-C , 17-H ) :   0.9581 
B(  6-H , 11-O ) :   0.8399 B(  7-C ,  9-H ) :   0.9684 B(  7-C , 15-H ) :   0.9744 
B(  7-C , 16-H ) :   0.9732 B(  8-C , 11-O ) :   0.9604 B(  8-C , 13-O ) :   1.8191 


-------
TIMINGS
-------

Total SCF time: 0 days 0 hours 0 min 23 sec 

Total time                  ....      23.880 sec
Sum of individual times     ....      22.844 sec  ( 95.7%)

SCF preparation             ....       0.017 sec  (  0.1%)
Fock matrix formation       ....      22.768 sec  ( 95.3%)
  Startup                   ....       0.001 sec  (  0.0% of F)
  Coulomb+Exchange Fock     ....      23.789 sec  (104.5% of F)
Diagonalization             ....       0.000 sec  (  0.0%)
Density matrix formation    ....       0.005 sec  (  0.0%)
Total Energy calculation    ....       0.001 sec  (  0.0%)
Population analysis         ....       0.003 sec  (  0.0%)
Orbital Transformation      ....       0.006 sec  (  0.0%)
Orbital Orthonormalization  ....       0.000 sec  (  0.0%)
DIIS solution               ....       0.026 sec  (  0.1%)
SOSCF solution              ....       0.017 sec  (  0.1%)
Finished LeanSCF after  23.9 sec

Maximum memory used throughout the entire LEANSCF-calculation: 15.5 MB

------------------------------------------------------------------------------
                                ORCA  MP2 
------------------------------------------------------------------------------

Freezing NCore=18 chemical core electrons
MP2 will be done in the AO integral direct mode
The Q1-step will be done using symmetric double matrices
Dimension of the basis                    ...  191
Memory devoted for MP2                    ... 4096 MB   
Memory needed for all in one shot         ...  722 MB
Number of MOs that can be treated together...  152      
MP2 density construction                  ... relaxed
The MP2 gradient is requested => amplitudes will be stored on disk
Total number of MOs              ...   27
Number of MOs treated per batch  ...   27 
Number of batches necessary      ...    1 
OPERATORS   0/  0 PASS   0
-----------------------------------------------
 MP2 CORRELATION ENERGY   :     -1.370887583 Eh
-----------------------------------------------


---------------------
MP2 DENSITY FORMATION
---------------------

Completing the external part of the density      ... done
Storing the unrelaxed density                    ... done

Calculating G(D)                                 ... done
Completing the Lagrangian                        ... done
Solving the Z-vector equations                   ... 
-------------------
SHARK CP-SCF DRIVER
-------------------

Dimension of the orbital basis          ...    191
Dimension of the CPSCF-problem          ...   5580
Number of operators                     ...      1
Max. number of iterations               ...    128
Convergence Tolerance                   ... 1.0e-04
Number of perturbations                 ...      1
Perturbation type                       ... REAL

----------------------------
POPLE LINEAR EQUATION SOLVER
----------------------------

  ITERATION   0:   ||err||_max =   1.2841e-01 (   2.7 sec)
  ITERATION   1:   ||err||_max =   3.3092e-02 (   2.8 sec)
  ITERATION   2:   ||err||_max =   1.4181e-02 (   2.8 sec)
  ITERATION   3:   ||err||_max =   3.4575e-03 (   2.7 sec)
  ITERATION   4:   ||err||_max =   1.2788e-03 (   2.8 sec)
  ITERATION   5:   ||err||_max =   3.1276e-04 (   2.8 sec)
  ITERATION   6:   ||err||_max =   9.1748e-05 (   2.8 sec)
                                                 ... done
Finalizing the relaxed density                   ... done
Transforming P to the AO basis                   ... done
Storing the relaxed density                      ... done

------------------------------------
ENERGY WEIGHTED DENSITY FINALIZATION
------------------------------------

Gathering the parts of the W-matrix              ...                                                      done
Forming the Z-density                            ... done
Transforming Z to the AO basis                   ... done
Calculating G(Z)                                 ... done
Finalizing the W-matrix                          ...                                                      done
Transforming W to the AO basis and storing       ... done

                *********************************************
                * UNRELAXED MP2 DENSITY POPULATION ANALYSIS *
                *********************************************

------------------------------------------------------------------------------
                           ORCA POPULATION ANALYSIS
------------------------------------------------------------------------------
Input electron density              ... 3.pmp2ur
BaseName (.gbw .S,...)              ... 3

                    ********************************
                    * MULLIKEN POPULATION ANALYSIS *
                    ********************************

-----------------------
MULLIKEN ATOMIC CHARGES
-----------------------
   0 C :   -0.224411
   1 C :   -0.331808
   2 C :   -0.137010
   3 H :    0.272847
   4 H :    0.278156
   5 C :   -0.036542
   6 H :    0.368188
   7 C :   -0.346540
   8 C :    0.760273
   9 H :    0.116223
  10 N :   -0.669366
  11 O :   -0.623967
  12 H :    0.115734
  13 O :   -0.567536
  14 H :    0.150948
  15 H :    0.123281
  16 H :    0.120559
  17 H :    0.157584
  18 H :    0.139647
  19 H :    0.111586
  20 H :    0.108150
  21 H :    0.114003
Sum of atomic charges:    0.0000000

--------------------------------
MULLIKEN REDUCED ORBITAL CHARGES
--------------------------------
  0 C s       :     3.235262  s :     3.235262
      pz      :     0.973532  p :     2.924015
      px      :     0.912576
      py      :     1.037907
      dz2     :     0.008176  d :     0.065134
      dxz     :     0.014944
      dyz     :     0.017565
      dx2y2   :     0.010767
      dxy     :     0.013683
  1 C s       :     3.248891  s :     3.248891
      pz      :     0.981353  p :     3.025050
      px      :     1.009066
      py      :     1.034631
      dz2     :     0.007051  d :     0.057867
      dxz     :     0.013313
      dyz     :     0.016703
      dx2y2   :     0.009523
      dxy     :     0.011277
  2 C s       :     3.235845  s :     3.235845
      pz      :     1.004180  p :     2.830191
      px      :     0.887863
      py      :     0.938147
      dz2     :     0.011335  d :     0.070975
      dxz     :     0.012952
      dyz     :     0.019019
      dx2y2   :     0.010383
      dxy     :     0.017286
  3 H s       :     0.699111  s :     0.699111
      pz      :     0.008922  p :     0.028042
      px      :     0.009572
      py      :     0.009548
  4 H s       :     0.693708  s :     0.693708
      pz      :     0.008058  p :     0.028136
      px      :     0.008727
      py      :     0.011351
  5 C s       :     3.198239  s :     3.198239
      pz      :     0.842619  p :     2.753032
      px      :     0.908687
      py      :     1.001726
      dz2     :     0.013233  d :     0.085271
      dxz     :     0.021240
      dyz     :     0.021242
      dx2y2   :     0.010151
      dxy     :     0.019405
  6 H s       :     0.589166  s :     0.589166
      pz      :     0.018370  p :     0.042647
      px      :     0.012749
      py      :     0.011528
  7 C s       :     3.251889  s :     3.251889
      pz      :     0.980565  p :     3.036664
      px      :     1.039231
      py      :     1.016868
      dz2     :     0.011813  d :     0.057987
      dxz     :     0.008442
      dyz     :     0.015076
      dx2y2   :     0.008703
      dxy     :     0.013953
  8 C s       :     2.955511  s :     2.955511
      pz      :     0.742658  p :     2.128007
      px      :     0.734971
      py      :     0.650378
      dz2     :     0.020136  d :     0.156209
      dxz     :     0.046214
      dyz     :     0.015844
      dx2y2   :     0.031055
      dxy     :     0.042959
  9 H s       :     0.868309  s :     0.868309
      pz      :     0.007684  p :     0.015468
      px      :     0.002948
      py      :     0.004836
 10 N s       :     3.597999  s :     3.597999
      pz      :     1.445046  p :     4.014569
      px      :     1.296875
      py      :     1.272648
      dz2     :     0.008606  d :     0.056798
      dxz     :     0.013083
      dyz     :     0.012279
      dx2y2   :     0.005487
      dxy     :     0.017343
 11 O s       :     3.834576  s :     3.834576
      pz      :     1.504067  p :     4.741064
      px      :     1.658583
      py      :     1.578413
      dz2     :     0.006794  d :     0.048327
      dxz     :     0.013672
      dyz     :     0.007132
      dx2y2   :     0.008436
      dxy     :     0.012292
 12 H s       :     0.868818  s :     0.868818
      pz      :     0.003657  p :     0.015449
      px      :     0.007891
      py      :     0.003900
 13 O s       :     3.870647  s :     3.870647
      pz      :     1.656774  p :     4.642517
      px      :     1.366127
      py      :     1.619616
      dz2     :     0.008062  d :     0.054372
      dxz     :     0.013221
      dyz     :     0.005527
      dx2y2   :     0.013506
      dxy     :     0.014056
 14 H s       :     0.833895  s :     0.833895
      pz      :     0.007116  p :     0.015156
      px      :     0.002779
      py      :     0.005262
 15 H s       :     0.861276  s :     0.861276
      pz      :     0.003232  p :     0.015443
      px      :     0.005189
      py      :     0.007021
 16 H s       :     0.864003  s :     0.864003
      pz      :     0.003262  p :     0.015438
      px      :     0.008442
      py      :     0.003734
 17 H s       :     0.827429  s :     0.827429
      pz      :     0.004116  p :     0.014987
      px      :     0.004573
      py      :     0.006298
 18 H s       :     0.844616  s :     0.844616
      pz      :     0.005222  p :     0.015736
      px      :     0.003225
      py      :     0.007289
 19 H s       :     0.873130  s :     0.873130
      pz      :     0.004917  p :     0.015284
      px      :     0.004569
      py      :     0.005798
 20 H s       :     0.876314  s :     0.876314
      pz      :     0.005055  p :     0.015536
      px      :     0.004251
      py      :     0.006230
 21 H s       :     0.870597  s :     0.870597
      pz      :     0.005313  p :     0.015400
      px      :     0.003188
      py      :     0.006899


                     *******************************
                     * LOEWDIN POPULATION ANALYSIS *
                     *******************************

----------------------
LOEWDIN ATOMIC CHARGES
----------------------
   0 C :   -0.118369
   1 C :   -0.182826
   2 C :   -0.059078
   3 H :    0.129734
   4 H :    0.130623
   5 C :   -0.028598
   6 H :    0.198231
   7 C :   -0.182098
   8 C :    0.204972
   9 H :    0.064524
  10 N :   -0.269248
  11 O :   -0.200339
  12 H :    0.065395
  13 O :   -0.292968
  14 H :    0.074077
  15 H :    0.068820
  16 H :    0.064869
  17 H :    0.079566
  18 H :    0.069181
  19 H :    0.060579
  20 H :    0.059936
  21 H :    0.063015

-------------------------------
LOEWDIN REDUCED ORBITAL CHARGES
-------------------------------
  0 C s       :     2.888831  s :     2.888831
      pz      :     1.043423  p :     3.118261
      px      :     1.011197
      py      :     1.063642
      dz2     :     0.013253  d :     0.111277
      dxz     :     0.027092
      dyz     :     0.028961
      dx2y2   :     0.018150
      dxy     :     0.023821
  1 C s       :     2.904579  s :     2.904579
      pz      :     1.052019  p :     3.185310
      px      :     1.058702
      py      :     1.074589
      dz2     :     0.011014  d :     0.092937
      dxz     :     0.022541
      dyz     :     0.027624
      dx2y2   :     0.014311
      dxy     :     0.017447
  2 C s       :     2.878917  s :     2.878917
      pz      :     1.042197  p :     3.053745
      px      :     1.000117
      py      :     1.011431
      dz2     :     0.019145  d :     0.126415
      dxz     :     0.022964
      dyz     :     0.033993
      dx2y2   :     0.018051
      dxy     :     0.032263
  3 H s       :     0.785176  s :     0.785176
      pz      :     0.026093  p :     0.085090
      px      :     0.029488
      py      :     0.029509
  4 H s       :     0.783653  s :     0.783653
      pz      :     0.025448  p :     0.085724
      px      :     0.026518
      py      :     0.033758
  5 C s       :     2.870722  s :     2.870722
      pz      :     0.974354  p :     3.000340
      px      :     0.991420
      py      :     1.034566
      dz2     :     0.023997  d :     0.157537
      dxz     :     0.040862
      dyz     :     0.039696
      dx2y2   :     0.016746
      dxy     :     0.036236
  6 H s       :     0.678985  s :     0.678985
      pz      :     0.051440  p :     0.122784
      px      :     0.038647
      py      :     0.032697
  7 C s       :     2.905583  s :     2.905583
      pz      :     1.048365  p :     3.183192
      px      :     1.071347
      py      :     1.063480
      dz2     :     0.019541  d :     0.093323
      dxz     :     0.013345
      dyz     :     0.025392
      dx2y2   :     0.012835
      dxy     :     0.022209
  8 C s       :     2.851346  s :     2.851346
      pz      :     0.853795  p :     2.615906
      px      :     0.984370
      py      :     0.777741
      dz2     :     0.041832  d :     0.327775
      dxz     :     0.096916
      dyz     :     0.030542
      dx2y2   :     0.065953
      dxy     :     0.092533
  9 H s       :     0.890775  s :     0.890775
      pz      :     0.022480  p :     0.044701
      px      :     0.008206
      py      :     0.014014
 10 N s       :     3.185053  s :     3.185053
      pz      :     1.438024  p :     3.998565
      px      :     1.298180
      py      :     1.262361
      dz2     :     0.011674  d :     0.085630
      dxz     :     0.020366
      dyz     :     0.018856
      dx2y2   :     0.007802
      dxy     :     0.026932
 11 O s       :     3.457007  s :     3.457007
      pz      :     1.476268  p :     4.670869
      px      :     1.640974
      py      :     1.553627
      dz2     :     0.009724  d :     0.072462
      dxz     :     0.019110
      dyz     :     0.014800
      dx2y2   :     0.010921
      dxy     :     0.017909
 12 H s       :     0.890483  s :     0.890483
      pz      :     0.010164  p :     0.044122
      px      :     0.022977
      py      :     0.010981
 13 O s       :     3.544613  s :     3.544613
      pz      :     1.630687  p :     4.666954
      px      :     1.450816
      py      :     1.585451
      dz2     :     0.011960  d :     0.081401
      dxz     :     0.019628
      dyz     :     0.005919
      dx2y2   :     0.025045
      dxy     :     0.018849
 14 H s       :     0.880796  s :     0.880796
      pz      :     0.020680  p :     0.045127
      px      :     0.008383
      py      :     0.016064
 15 H s       :     0.886713  s :     0.886713
      pz      :     0.008920  p :     0.044467
      px      :     0.014951
      py      :     0.020596
 16 H s       :     0.890319  s :     0.890319
      pz      :     0.009126  p :     0.044812
      px      :     0.024840
      py      :     0.010846
 17 H s       :     0.875357  s :     0.875357
      pz      :     0.012366  p :     0.045077
      px      :     0.014361
      py      :     0.018349
 18 H s       :     0.884811  s :     0.884811
      pz      :     0.015494  p :     0.046008
      px      :     0.009039
      py      :     0.021474
 19 H s       :     0.895487  s :     0.895487
      pz      :     0.014242  p :     0.043934
      px      :     0.013021
      py      :     0.016672
 20 H s       :     0.895555  s :     0.895555
      pz      :     0.014292  p :     0.044509
      px      :     0.012203
      py      :     0.018014
 21 H s       :     0.892830  s :     0.892830
      pz      :     0.015196  p :     0.044155
      px      :     0.008892
      py      :     0.020068


                      *****************************
                      * MAYER POPULATION ANALYSIS *
                      *****************************

  NA   - Mulliken gross atomic population
  ZA   - Total nuclear charge
  QA   - Mulliken gross atomic charge
  VA   - Mayer's total valence
  BVA  - Mayer's bonded valence
  FA   - Mayer's free valence

  ATOM       NA         ZA         QA         VA         BVA        FA
  0 C      6.2244     6.0000    -0.2244     3.8696     3.6017     0.2679
  1 C      6.3318     6.0000    -0.3318     3.9442     3.6951     0.2492
  2 C      6.1370     6.0000    -0.1370     3.8215     3.5336     0.2879
  3 H      0.7272     1.0000     0.2728     0.9133     0.8673     0.0460
  4 H      0.7218     1.0000     0.2782     0.9133     0.8672     0.0460
  5 C      6.0365     6.0000    -0.0365     3.8173     3.5351     0.2822
  6 H      0.6318     1.0000     0.3682     0.8800     0.8353     0.0446
  7 C      6.3465     6.0000    -0.3465     3.9350     3.6805     0.2545
  8 C      5.2397     6.0000     0.7603     3.7306     3.4385     0.2920
  9 H      0.8838     1.0000     0.1162     0.9635     0.9157     0.0477
 10 N      7.6694     7.0000    -0.6694     2.9717     2.6452     0.3265
 11 O      8.6240     8.0000    -0.6240     2.0799     1.7224     0.3576
 12 H      0.8843     1.0000     0.1157     0.9614     0.9148     0.0467
 13 O      8.5675     8.0000    -0.5675     2.1554     1.7568     0.3986
 14 H      0.8491     1.0000     0.1509     0.9555     0.9053     0.0502
 15 H      0.8767     1.0000     0.1233     0.9628     0.9157     0.0470
 16 H      0.8794     1.0000     0.1206     0.9617     0.9141     0.0476
 17 H      0.8424     1.0000     0.1576     0.9497     0.9004     0.0493
 18 H      0.8604     1.0000     0.1396     0.9600     0.9116     0.0485
 19 H      0.8884     1.0000     0.1116     0.9594     0.9099     0.0496
 20 H      0.8919     1.0000     0.1081     0.9615     0.9145     0.0470
 21 H      0.8860     1.0000     0.1140     0.9605     0.9138     0.0466

  Mayer bond orders larger than 0.100000
B(  0-C ,  1-C ) :   0.9203 B(  0-C ,  2-C ) :   0.9065 B(  0-C , 18-H ) :   0.9242 
B(  0-C , 19-H ) :   0.9380 B(  1-C , 12-H ) :   0.9415 B(  1-C , 20-H ) :   0.9377 
B(  1-C , 21-H ) :   0.9387 B(  2-C ,  5-C ) :   0.8929 B(  2-C ,  7-C ) :   0.9193 
B(  2-C , 14-H ) :   0.9264 B(  3-H , 10-N ) :   0.8725 B(  4-H , 10-N ) :   0.8625 
B(  5-C ,  8-C ) :   0.8586 B(  5-C , 10-N ) :   0.9423 B(  5-C , 17-H ) :   0.9199 
B(  6-H , 11-O ) :   0.8049 B(  7-C ,  9-H ) :   0.9311 B(  7-C , 15-H ) :   0.9374 
B(  7-C , 16-H ) :   0.9359 B(  8-C , 11-O ) :   0.9071 B(  8-C , 13-O ) :   1.6997 



                *******************************************
                * RELAXED MP2 DENSITY POPULATION ANALYSIS *
                *******************************************

------------------------------------------------------------------------------
                           ORCA POPULATION ANALYSIS
------------------------------------------------------------------------------
Input electron density              ... 3.pmp2re
BaseName (.gbw .S,...)              ... 3

                    ********************************
                    * MULLIKEN POPULATION ANALYSIS *
                    ********************************

-----------------------
MULLIKEN ATOMIC CHARGES
-----------------------
   0 C :   -0.211417
   1 C :   -0.331162
   2 C :   -0.098138
   3 H :    0.257912
[...]
   5 C :   -0.047761
   6 H :    0.187495
   7 C :   -0.197143
   8 C :    0.145020
   9 H :    0.069695
  10 N :   -0.259000
  11 O :   -0.172899
  12 H :    0.070022
  13 O :   -0.229795
  14 H :    0.074932
  15 H :    0.070680
  16 H :    0.072967
  17 H :    0.081199
  18 H :    0.062942
  19 H :    0.066943
  20 H :    0.069629
  21 H :    0.065710

-------------------------------
LOEWDIN REDUCED ORBITAL CHARGES
-------------------------------
  0 C s       :     2.889749  s :     2.889749
      pz      :     1.050371  p :     3.130207
      px      :     1.025768
      py      :     1.054068
      dz2     :     0.016307  d :     0.105486
      dxz     :     0.021215
      dyz     :     0.026450
      dx2y2   :     0.014069
      dxy     :     0.027447
  1 C s       :     2.905976  s :     2.905976
      pz      :     1.064402  p :     3.208040
      px      :     1.070652
      py      :     1.072987
      dz2     :     0.015648  d :     0.086507
      dxz     :     0.016529
      dyz     :     0.021348
      dx2y2   :     0.014161
      dxy     :     0.018820
  2 C s       :     2.880435  s :     2.880435
      pz      :     1.045991  p :     3.061001
      px      :     1.003141
      py      :     1.011868
      dz2     :     0.017531  d :     0.121321
      dxz     :     0.024101
      dyz     :     0.031944
      dx2y2   :     0.016647
      dxy     :     0.031097
  3 H s       :     0.788021  s :     0.788021
      pz      :     0.028937  p :     0.083761
      px      :     0.022614
      py      :     0.032210
  4 H s       :     0.784785  s :     0.784785
      pz      :     0.033358  p :     0.085344
      px      :     0.027999
      py      :     0.023988
  5 C s       :     2.874668  s :     2.874668
      pz      :     1.018732  p :     3.023163
      px      :     0.983426
      py      :     1.021004
      dz2     :     0.016431  d :     0.149930
      dxz     :     0.031074
      dyz     :     0.043329
      dx2y2   :     0.023670
      dxy     :     0.035427
  6 H s       :     0.692372  s :     0.692372
      pz      :     0.052946  p :     0.120133
      px      :     0.031935
      py      :     0.035253
  7 C s       :     2.906720  s :     2.906720
      pz      :     1.061142  p :     3.203668
      px      :     1.078320
      py      :     1.064206
      dz2     :     0.013612  d :     0.086756
      dxz     :     0.017805
      dyz     :     0.023232
      dx2y2   :     0.007556
      dxy     :     0.024550
  8 C s       :     2.863843  s :     2.863843
      pz      :     0.911339  p :     2.687193
      px      :     0.906845
      py      :     0.869009
      dz2     :     0.052933  d :     0.303945
      dxz     :     0.055458
      dyz     :     0.043015
      dx2y2   :     0.060392
      dxy     :     0.092147
  9 H s       :     0.885549  s :     0.885549
      pz      :     0.020933  p :     0.044756
      px      :     0.010577
      py      :     0.013246
 10 N s       :     3.200713  s :     3.200713
      pz      :     1.312106  p :     3.975169
      px      :     1.190491
      py      :     1.472572
      dz2     :     0.008692  d :     0.083118
      dxz     :     0.026442
      dyz     :     0.015576
      dx2y2   :     0.011108
      dxy     :     0.021300
 11 O s       :     3.483516  s :     3.483516
      pz      :     1.559588  p :     4.617151
      px      :     1.645843
      py      :     1.411720
      dz2     :     0.011511  d :     0.072232
      dxz     :     0.011676
      dyz     :     0.015180
      dx2y2   :     0.012790
      dxy     :     0.021075
 12 H s       :     0.886245  s :     0.886245
      pz      :     0.010830  p :     0.043732
      px      :     0.023177
      py      :     0.009726
 13 O s       :     3.561863  s :     3.561863
      pz      :     1.492868  p :     4.589177
      px      :     1.442449
      py      :     1.653860
      dz2     :     0.013528  d :     0.078755
      dxz     :     0.024061
      dyz     :     0.009461
      dx2y2   :     0.017403
      dxy     :     0.014303
 14 H s       :     0.880544  s :     0.880544
      pz      :     0.020499  p :     0.044523
      px      :     0.009223
      py      :     0.014801
 15 H s       :     0.885249  s :     0.885249
      pz      :     0.010329  p :     0.044070
      px      :     0.016463
      py      :     0.017279
 16 H s       :     0.882234  s :     0.882234
      pz      :     0.011317  p :     0.044799
      px      :     0.020133
      py      :     0.013349
 17 H s       :     0.873417  s :     0.873417
      pz      :     0.018283  p :     0.045384
      px      :     0.013303
      py      :     0.013798
 18 H s       :     0.892584  s :     0.892584
      pz      :     0.020933  p :     0.044473
      px      :     0.009265
      py      :     0.014276
 19 H s       :     0.889268  s :     0.889268
      pz      :     0.010451  p :     0.043789
      px      :     0.014826
      py      :     0.018512
 20 H s       :     0.885444  s :     0.885444
      pz      :     0.009176  p :     0.044927
      px      :     0.013304
      py      :     0.022448
 21 H s       :     0.890658  s :     0.890658
      pz      :     0.021883  p :     0.043632
      px      :     0.008778
      py      :     0.012970


                      *****************************
                      * MAYER POPULATION ANALYSIS *
                      *****************************

  NA   - Mulliken gross atomic population
  ZA   - Total nuclear charge
  QA   - Mulliken gross atomic charge
  VA   - Mayer's total valence
  BVA  - Mayer's bonded valence
  FA   - Mayer's free valence

  ATOM       NA         ZA         QA         VA         BVA        FA
  0 C      6.1980     6.0000    -0.1980     3.9290     3.6633     0.2657
  1 C      6.3420     6.0000    -0.3420     3.9650     3.7164     0.2486
  2 C      6.0903     6.0000    -0.0903     3.9197     3.6370     0.2828
  3 H      0.7442     1.0000     0.2558     0.9175     0.8710     0.0465
  4 H      0.7333     1.0000     0.2667     0.9253     0.8794     0.0458
  5 C      6.0581     6.0000    -0.0581     3.8913     3.6131     0.2782
  6 H      0.6596     1.0000     0.3404     0.9042     0.8600     0.0443
  7 C      6.3469     6.0000    -0.3469     3.9558     3.7033     0.2525
  8 C      5.4282     6.0000     0.5718     3.9251     3.6451     0.2800
  9 H      0.8820     1.0000     0.1180     0.9700     0.9224     0.0476
 10 N      7.6099     7.0000    -0.6099     3.0334     2.7090     0.3244
 11 O      8.5219     8.0000    -0.5219     2.2101     1.8561     0.3541
 12 H      0.8894     1.0000     0.1106     0.9639     0.9170     0.0470
 13 O      8.4442     8.0000    -0.4442     2.3092     1.9185     0.3907
 14 H      0.8727     1.0000     0.1273     0.9586     0.9080     0.0505
 15 H      0.8872     1.0000     0.1128     0.9655     0.9178     0.0476
 16 H      0.8779     1.0000     0.1221     0.9648     0.9178     0.0470
 17 H      0.8584     1.0000     0.1416     0.9559     0.9076     0.0483
 18 H      0.8943     1.0000     0.1057     0.9680     0.9184     0.0496
 19 H      0.8923     1.0000     0.1077     0.9605     0.9107     0.0497
 20 H      0.8767     1.0000     0.1233     0.9664     0.9199     0.0465
 21 H      0.8925     1.0000     0.1075     0.9634     0.9163     0.0472

  Mayer bond orders larger than 0.100000
B(  0-C ,  1-C ) :   0.9375 B(  0-C ,  2-C ) :   0.9326 B(  0-C , 18-H ) :   0.9191 
B(  0-C , 19-H ) :   0.9261 B(  1-C , 12-H ) :   0.9359 B(  1-C , 20-H ) :   0.9295 
B(  1-C , 21-H ) :   0.9342 B(  2-C ,  5-C ) :   0.9084 B(  2-C ,  7-C ) :   0.9384 
B(  2-C , 14-H ) :   0.9120 B(  3-H , 10-N ) :   0.8740 B(  4-H , 10-N ) :   0.8574 
B(  5-C ,  8-C ) :   0.8624 B(  5-C , 10-N ) :   0.9689 B(  5-C , 17-H ) :   0.9087 
B(  6-H , 11-O ) :   0.8116 B(  7-C ,  9-H ) :   0.9244 B(  7-C , 15-H ) :   0.9311 
B(  7-C , 16-H ) :   0.9289 B(  8-C , 11-O ) :   0.9804 B(  8-C , 13-O ) :   1.7868 



----------------------------------
MP2 DERIVATIVE INTEGRAL GENERATION
----------------------------------

Input SCF Electron Density              ... 3.scfp
Input Correlated Electron Density       ... 3.pmp2re
Input Energy Weighted Density           ... 3.wmp2.tmp
Input Wavefunction Amplitudes           ... 3.mp2tsaa.tmp

Nuclear repulsion gradient              ... done (  0.0 sec)
HCore & Overlap gradient  (SHARK)       ... done (  0.1 sec)
Analytic two-electron gradient terms    ... 
  Batch handling in the gradient evaluation:
  General contraction                   ... not used
  Memory available                      ... 4081.3 MB
  Memory per occupied orbital in Q2     ...    7.5 MB
  Memory per occupied orbital in Q3     ...    0.0 MB
  Total memory requirement per |i>      ...    7.6 MB
  Number of orbitals treated per batch  ...     27
  Number of batches to be done          ...      1
done ( 22.1 sec)

---------------------------------------
MP2 TOTAL ENERGY:     -440.365282588 Eh
---------------------------------------

The final MP2 gradient
  0:   0.00001713   0.00002795   0.00002728
  1:   0.00003152  -0.00001861  -0.00003803
  2:  -0.00005179   0.00001297  -0.00002414
  3:   0.00000242  -0.00000557   0.00000399
  4:   0.00000920  -0.00001784  -0.00001432
  5:   0.00006670  -0.00000729   0.00003219
  6:   0.00001361   0.00001513  -0.00000483
  7:  -0.00004035   0.00004259   0.00003239
  8:   0.00002753   0.00001307  -0.00007400
  9:   0.00001544   0.00000486  -0.00000900
 10:  -0.00003094   0.00004105   0.00000866
 11:   0.00001216   0.00001291   0.00001331
 12:  -0.00001187   0.00000505   0.00002135
 13:  -0.00006880  -0.00004059   0.00005959
 14:   0.00000997  -0.00000719   0.00000901
 15:   0.00000241  -0.00002224  -0.00002161
 16:   0.00001367  -0.00003234   0.00000320
 17:   0.00000118  -0.00002976  -0.00001084
 18:  -0.00000999   0.00000223   0.00000102
 19:  -0.00000313  -0.00000887  -0.00001698
 20:  -0.00000662  -0.00000062   0.00000098
 21:   0.00000053   0.00001308   0.00000080

-----------------------------------
NORM OF THE MP2 GRADIENT:  0.000209
-----------------------------------

Maximum memory used throughout the entire MP2-calculation: 780.4 MB

-------------------------   --------------------
FINAL SINGLE POINT ENERGY      -440.365282587574
-------------------------   --------------------

                                *** OPTIMIZATION RUN DONE ***


------------------------------------------------------------------------------
                              ORCA PROPERTY CALCULATIONS
------------------------------------------------------------------------------

GBWName                                 ... 3.gbw
Number of atoms                         ...     22
Number of basis functions               ...    191
Max core memory                         ...   4096 MB

Electric properties:
Dipole moment                           ... YES
Quadrupole moment                       ...  NO
Static polarizability (Dipole/Dipole)   ...  NO
Static polarizability (Dipole/Quad.)    ...  NO
Static polarizability (Quad./Quad.)     ...  NO
Static polarizability (Velocity)        ...  NO
Static hyperpolarizability              ...  NO

Atomic electric properties:
Dipole moment                           ...  NO
Quadrupole moment                       ...  NO
Static polarizability                   ...  NO

Choice of electric origin               ... Center of mass
Position of electric origin             ...   -14.488361     7.870142    -0.464831

General magnetic properties:
Magnetizability                         ...  NO

EPR properties:
g-Tensor (aka g-matrix)                 ...  NO
Zero-Field splitting spin-orbit         ...  NO
Zero-field splitting spin-spin          ...  NO
Hyperfine couplings                     ...  NO (   0 nuclei)
Quadrupole couplings                    ...  NO (   0 nuclei)
Contact density                         ...  NO (   0 nuclei)

NMR properties:
Chemical shifts                         ...  NO (   0 nuclei)
Spin-rotation constants                 ...  NO (   0 nuclei)
Spin-spin couplings                     ...  NO (   0 nuclei,    0 pairs)

Choice of magnetic origin               ... GIAO
Position of magnetic origin             ...     0.000000     0.000000     0.000000

Properties with geometric perturbations:
SCF Hessian                             ...  NO
IR spectrum                             ...  NO
VCD spectrum                            ...  NO
X-ray spectroscopy properties:
SCF XES/XAS/RIXS spectra                ...  NO

SCF SOC stabilization energy            ...  NO
Diagonal Born-Oppenheimer correction    ...  NO

-------------
DIPOLE MOMENT
-------------

Method             : SCF
Type of density    : Electron Density
Multiplicity       :   1
Irrep              :   0
Energy             :  -438.9891286328320348 Eh
Basis              : AO
                                X                 Y                 Z
Electronic contribution:      7.371599713      -5.782064147      -1.342813697
Nuclear contribution   :     -7.751633595       5.279985466       1.381238395
                        -----------------------------------------
Total Dipole Moment    :     -0.380033882      -0.502078682       0.038424699
                        -----------------------------------------
Magnitude (a.u.)       :      0.630860691
Magnitude (Debye)      :      1.603520442



--------------------
Rotational spectrum 
--------------------
 
Rotational constants in cm-1:             0.062251             0.045839             0.036078 
Rotational constants in MHz :          1866.240402          1374.214461          1081.576441 

Dipole components along the rotational axes: 
x,y,z [a.u.] :    -0.280302    -0.555343     0.104928 
x,y,z [Debye]:    -0.712470    -1.411571     0.266706 

 

-------------
DIPOLE MOMENT
-------------

Method             : MP2
Type of density    : Electron Density
Multiplicity       :   1
Level              : Unrelaxed density
Irrep              :   0
Energy             :     0.0000000000000000 Eh
Basis              : AO
                                X                 Y                 Z
Electronic contribution:      7.400216514      -5.781054808      -1.362687779
Nuclear contribution   :     -7.751633595       5.279985466       1.381238395
                        -----------------------------------------
Total Dipole Moment    :     -0.351417080      -0.501069342       0.018550616
                        -----------------------------------------
Magnitude (a.u.)       :      0.612297783
Magnitude (Debye)      :      1.556337281



--------------------
Rotational spectrum 
--------------------
 
Rotational constants in cm-1:             0.062251             0.045839             0.036078 
Rotational constants in MHz :          1866.240402          1374.214461          1081.576441 

Dipole components along the rotational axes: 
x,y,z [a.u.] :    -0.250889    -0.551788     0.086565 
x,y,z [Debye]:    -0.637710    -1.402533     0.220032 

 

-------------
DIPOLE MOMENT
-------------

Method             : MP2
Type of density    : Electron Density
Multiplicity       :   1
Level              : Relaxed density
Irrep              :   0
Energy             :     0.0000000000000000 Eh
Basis              : AO
                                X                 Y                 Z
Electronic contribution:      7.516529289      -5.807513731      -1.437727710
Nuclear contribution   :     -7.751633595       5.279985466       1.381238395
                        -----------------------------------------
Total Dipole Moment    :     -0.235104305      -0.527528266      -0.056489315
                        -----------------------------------------
Magnitude (a.u.)       :      0.580302635
Magnitude (Debye)      :      1.475012077



--------------------
Rotational spectrum 
--------------------
 
Rotational constants in cm-1:             0.062251             0.045839             0.036078 
Rotational constants in MHz :          1866.240402          1374.214461          1081.576441 

Dipole components along the rotational axes: 
x,y,z [a.u.] :    -0.126036    -0.565993     0.022772 
x,y,z [Debye]:    -0.320358    -1.438639     0.057882 

 

Dipole moment calculation done in   0.0 sec 

Maximum memory used throughout the entire PROP-calculation: 10.8 MB

--------------------------------
SUGGESTED CITATIONS FOR THIS RUN
--------------------------------

Below you find a list of papers that are relevant to this ORCA run
We neither can nor want to force you to cite these papers, but we appreciate if you do
You receive ORCA, which is the product of decades of hard work by many enthusiastic individuals, for free
The only thing we kindly ask in return is that you cite our papers,
We deeply appreciate it, if you show your appreciation for ORCA by not just citing the generic ORCA reference.

Please note that relegating all ORCA citations to the supporting information does *not* help us.
SI sections are not indexed - citations you put there will not count into any citation statistics
But we need these citations in order to attract the funding resources that allow us to do what we are doing

Therefore, if you are a happy ORCA user, please consider citing a few of the papers listed below in the main body of your paper

In addition to the list printed below, the program has created the file 3.bibtex that contains the list in bibtex format
You can import this file easily into all common literature databanks and citation aid programs


List of essential papers. We consider these as the minimum necessary citations

  1. Neese, F.
     Software update: the ORCA program system, version 6.0
     WIRES Comput. Molec. Sci. 2025 15(1), e70019
     doi.org/10.1002/wcms.7019

List of papers to cite with high priority. The work reported in these papers was absolutely
necessary for this run to complete.
Our perspective: the developers of density functionals and basis sets usually get cited in chemistry papers
Good! But without the algorithms to do something with them, the functionals or basis sets would not do anything.
Hence, in our opinion, the algorithm design and method developments papers are equally worthy of getting cited

  1. Neese, F.
     The SHARK Integral Generation and Digestion System
     J. Comp. Chem. 2022 44(3), 381
     doi.org/10.1002/jcc.26942

List of suggested additional citations. These are papers that are important in the 'surrounding' of 
of this run, or papers that preceded the highly important papers. If you like your results we are grateful for a citation.

  1. Neese, F.
     The ORCA program system
     WIRES Comput. Molec. Sci. 2012 2(1), 73-78
     doi.org/10.1002/wcms.81
  2. Neese, F.
     Software update: the ORCA program system, version 4.0
     WIRES Comput. Molec. Sci. 2018 8(1), 1-6
     doi.org/10.1002/wcms.1327
  3. Neese, F.; Wennmohs, F.; Becker, U.; Riplinger, C.
     The ORCA quantum chemistry program package
     J. Chem. Phys. 2020 152(22), 224108
     doi.org/10.1063/5.0004608
  4. Neese, F.
     Software update: The ORCA program system—Version 5.0
     WIRES Comput. Molec. Sci. 2022 12(1), e1606
     doi.org/10.1002/wcms.1606

List of optional additional citations

  1. Neese, F.
     Approximate second-order SCF convergence for spin unrestricted wavefunctions
     Chem. Phys. Lett. 2000 325(1-3), 93-98
     doi.org/10.1016/s0009-2614(00)00662-x

Timings for individual modules:

Sum of individual times          ...     1210.356 sec (=  20.173 min)
Startup calculation              ...        6.343 sec (=   0.106 min)   0.5 %
SCF iterations                   ...      257.516 sec (=   4.292 min)  21.3 %
Property calculations            ...        0.044 sec (=   0.001 min)   0.0 %
MP2 module                       ...      946.428 sec (=  15.774 min)  78.2 %
Geometry relaxation              ...        0.024 sec (=   0.000 min)   0.0 %
                             ****ORCA TERMINATED NORMALLY****
TOTAL RUN TIME: 0 days 0 hours 20 minutes 10 seconds 653 msec
