
                                 *****************
                                 * O   R   C   A *
                                 *****************

                                            #,                                       
                                            ###                                      
                                            ####                                     
                                            #####                                    
                                            ######                                   
                                           ########,                                 
                                     ,,################,,,,,                         
                               ,,#################################,,                 
                          ,,##########################################,,             
                       ,#########################################, ''#####,          
                    ,#############################################,,   '####,        
                  ,##################################################,,,,####,       
                ,###########''''           ''''###############################       
              ,#####''   ,,,,##########,,,,          '''####'''          '####       
            ,##' ,,,,###########################,,,                        '##       
           ' ,,###''''                  '''############,,,                           
         ,,##''                                '''############,,,,        ,,,,,,###''
      ,#''                                            '''#######################'''  
     '                                                          ''''####''''         
             ,#######,   #######,   ,#######,      ##                                
            ,#'     '#,  ##    ##  ,#'     '#,    #''#        ,####,    ,#,          
            ##       ##  ##   ,#'  ##            #'  '#       #'       ,# #          
            ##       ##  #######   ##           ,######,      #####,      #          
            '#,     ,#'  ##    ##  '#,     ,#' ,#      #,     #,   #      #          
             '#######'   ##     ##  '#######'  #'      '#     '####' #    #          



                #########################################################
                #                        -***-                          #
                #          Department of theory and spectroscopy        #
                #                                                       #
                #                      Frank Neese                      #
                #                                                       #
                #     Directorship, Architecture, Infrastructure        #
                #                    SHARK, DRIVERS                     #
                #        Core code/Algorithms in most modules           #
                #                                                       #
                #        Max Planck Institute fuer Kohlenforschung      #
                #                Kaiser Wilhelm Platz 1                 #
                #                 D-45470 Muelheim/Ruhr                 #
                #                      Germany                          #
                #                                                       #
                #                  All rights reserved                  #
                #                        -***-                          #
                #########################################################


                         Program Version 6.1.0  -  RELEASE   -
                                (GIT: $679e74b$)
                          ($2025-06-10 18:02:51 +0200$)


 With contributions from (in alphabetic order):
[Max-Planck-Institut fuer Kohlenforschung]                               
  Daniel Aravena         : Magnetic Suceptibility                        
  Michael Atanasov       : Ab Initio Ligand Field Theory (pilot matlab implementation)
  Alexander A. Auer      : GIAO ZORA, VPT2 properties, NMR spectrum      
  Ute Becker             : All parallelization in ORCA, NUMFREQ, NUMCALC 
  Giovanni Bistoni       : ED, misc. LED, open-shell LED, HFLD           
  Dmytro Bykov           : pre 5.0 version of the SCF Hessian            
  Marcos Casanova-Páez   : Triplet and SCS-CIS(D). UHF-(DLPNO)-IP/EA/STEOM-CCSD. UHF-CVS-IP/STEOM-CCSD   
  Vijay G. Chilkuri      : MRCI spin determinant printing, contributions to CSF-ICE 
  Pauline Colinet        : FMM embedding                                 
  Dipayan Datta          : RHF DLPNO-CCSD density                        
  Achintya Kumar Dutta   : EOM-CC, STEOM-CC                              
  Nicolas Foglia         : Exact transition moments, OPA infrastructure, MCD improvements    
  Dmitry Ganyushin       : Spin-Orbit,Spin-Spin,Magnetic field MRCI      
  Miquel Garcia-Rates    : C-PCM and meta-GGA Hessian, CCSD/C-PCM, Gaussian charge scheme 
  Tiago L. C. Gouveia    : GS-ROHF, GS-ROCIS                             
  Yang Guo               : DLPNO-NEVPT2, F12-NEVPT2, CIM, IAO-localization        
  Andreas Hansen         : Spin unrestricted coupled pair/coupled cluster methods 
  Ingolf Harden          : AUTO-CI MPn and infrastructure                
  Benjamin Helmich-Paris : MC-RPA, TRAH-(SCF,CASSCF), AVAS, COSX integrals, SCF dyn. polar., MC-PDFT, srDFT 
  Lee Huntington         : MR-EOM, pCC                                   
  Robert Izsak           : Overlap fitted RIJCOSX, COSX-SCS-MP3, EOM     
  Riya Kayal             : Wick's Theorem for AUTO-CI, AUTO-CI UHF-CCSDT 
  Emily Kempfer          : AUTO-CI RHF CISDT and CCSDT, approximate NEVPT4
  Christian Kollmar      : KDIIS, OOCD, Brueckner-CCSD(T), CCSD density, CASPT2, CASPT2-K, improved NEVPT2 
  Axel Koslowski         : Symmetry handling                             
  Simone Kossmann        : meta-GGA functionals, TD-DFT gradient, OOMP2, (MP2 Hessian; deprecated post 5.0) 
  Lucas Lang             : DCDCAS, Hyperfine gauge corrections, ICE-SOC+SSC
  Marvin Lechner         : AUTO-CI (C++ implementation), FIC-MRCC        
  Spencer Leger          : CASSCF response                               
  Dagmar Lenk            : GEPOL surface, SMD, ORCA-2-JSON               
  Dimitrios Liakos       : Extrapolation schemes; Compound Job, Property file
  Dimitrios Manganas     : Further ROCIS development; embedding schemes. LFT, Crystal Embedding 
  Dimitrios Pantazis     : SARC Basis sets                               
  Anastasios Papadopoulos: AUTO-CI, single reference methods and gradients 
  Taras Petrenko         : pre 6.0 DFT Hessian and TD-DFT gradient,  ECA, NRVS 
  Petra Pikulova         : Analytic Raman intensities                    
  Peter Pinski           : DLPNO-MP2, DLPNO-MP2 Gradient                 
  Shashank Vittal Rao    : ES-AILFT, MagRelax                            
  Christoph Reimann      : Effective Core Potentials                     
  Marius Retegan         : Local ZFS, SOC                                
  Christoph Riplinger    : Optimizer, TS searches, QM/MM, DLPNO-CCSD(T), (RO)-DLPNO pert. Triples 
  Michael Roemelt        : Original ROCIS implementation, recursive CI coupling coefficients
  Masaaki Saitow         : Open-shell DLPNO-CCSD energy and density      
  Barbara Sandhoefer     : DKH picture change effects                    
  Yorick L. A. Schmerwitz: GMF and freeze-and-release deltaSCF, NEB S-IDPP initial path                    
  Kantharuban Sivalingam : CASSCF convergence/infrastructure, NEVPT2, NEVPT3, NEVPT4(SD), FIC-MRCI and CEPA variants
  Bernardo de Souza      : ESD, SOC TD-DFT                               
  Georgi L. Stoychev     : AutoAux, RI-MP2 NMR, DLPNO-MP2 response, X2C  
  Van Anh Tran           : RI-MP2 g-tensors                              
  Willem Van den Heuvel  : Paramagnetic NMR                              
  Zikuan Wang            : NOTCH, Electric field optimization            
  Frank Wennmohs         : Technical directorship and infrastructure     
  Hang Xu                : AUTO-CI-Response properties                   
                                                                         
[FACCTs GmbH]                                                            
  Markus Bursch, Nicolas Foglia, Miquel Garcia-Rates, Ingolf Harden, Hagen Neugebauer, Anastasios Papadopoulos, 
  Christoph Riplinger, Bernardo de Souza, Georgi L. Stoychev                                                    
                                                                 
  APM, various basis sets, CI-OPT, improved COSX, DLPNO-Multilevel,           
  DOCKER, DRACO, updates on ESD, Fragmentator, GOAT, IRC, LR-CPCM, L-BFGS, MBIS, meta-GGA TD-DFT gradient, ML-optimized integration grids, 
  MM, NACMEs, nearIR, NEB, NEB-TS, NL-DFT gradient (VV10), 2- and 3-layer-ONIOM, interface openCOSMO-RS, QMMM,   
  Crystal-QMMM, RESP, rigid body optimization, SF, symmetry and pop. for TD-DFT, various functionals, SOLVATOR                                   
                                                                         
[Other institutions]                                                     
  V. Asgeirsson          : NEB                                           
  Christoph Bannwarth    : sTDA-DFT, sTD-DFT, PBEh-3c, B97-3c, D3        
  Giovanni Bistoni       : ETS/NOCV, ADLD/ADEX, COVALED                  
  Martin Brehm           : Molecular dynamics                            
  Ronald Cardenas        : ETS/NOCV                                      
  Martina Colucci        : COVALED                                       
  Sebastian Ehlert       : rSCAN, r2SCAN, r2SCAN-3c, D4, dhf basis sets  
  Marvin Friede          : D4 for Fr, Ra, Ac-Lr                          
  Lars Goerigk           : TD-DFT with DH, B97 family of functionals     
  Stefan Grimme          : VdW corrections, initial TS optimization, DFT functionals, gCP, sTDA/sTD-DF 
  Waldemar Hujo          : DFT-NL                                        
  H. Jonsson             : NEB                                           
  Holger Kruse           : gCP                                           
  Marcel Mueller         : wB97X-3c, vDZP basis set                      
  Hagen Neugebauer       : wr2SCAN, Native XTB                           
  Gianluca Regni         : ADLD/ADEX                                     
  Tobias Risthaus        : pre 6.0 range-separated hybrid DFT and stability analysis
  Lukas Wittmann         : regularized MP2, r2SCAN double-hybrids, wr2SCAN        
                                                                         
We gratefully acknowledge several colleagues who have allowed us to      
interface, adapt or use parts of their codes:                            
  Ed Valeev, F. Pavosevic, A. Kumar             : LibInt (2-el integral package), F12 methods 
  Garnet Chan, S. Sharma, J. Yang, R. Olivares  : DMRG                   
  Ulf Ekstrom                                   : XCFun DFT Library      
  Mihaly Kallay                                 : mrcc  (arbitrary order and MRCC methods)
  Frank Weinhold                                : gennbo (NPA and NBO analysis)           
  Simon Mueller                                 : openCOSMO-RS                            
  Christopher J. Cramer and Donald G. Truhlar   : smd solvation model                     
  S Lehtola, MJT Oliveira, MAL Marques          : LibXC Library                           
  Liviu Ungur et al                             : ANISO software                          


 Your calculation uses the libint2 library for the computation of 2-el integrals
 For citations please refer to: http://libint.valeyev.net

 Your ORCA version has been built with support for libXC version: 7.0.0
 For citations please refer to: https://libxc.gitlab.io

 This ORCA versions uses:
   CBLAS   interface :  Fast vector & matrix operations
   LAPACKE interface :  Fast linear algebra routines
   SCALAPACK package :  Parallel linear algebra routines
   Shared memory     :  Shared parallel matrices
   BLAS/LAPACK       :  OpenBLAS 0.3.29  USE64BITINT DYNAMIC_ARCH NO_AFFINITY Haswell SINGLE_THREADED
        Core in use  :  Haswell
   Copyright (c) 2011-2014, The OpenBLAS Project


  ***********************************
  * Starting time: Thu Aug 14 01:11:05 2025
  * Host name:     CHEMLAB02
  * Process ID:    1544131
  * Working dir.:  /home/vivek/mm-project/vivek/MP2/l/5
  ***********************************



***************************************
The coordinates will be read from file: /home/vivek/mm-project/vivek/xtb-goat/l/L_CONF/5.xyz
***************************************


================================================================================

----- Orbital basis set information -----
Your calculation utilizes the basis: 6-31G**
   H-He, Li-Ne : W. J. Hehre, R. Ditchfield and J.A. Pople, J. Chem. Phys. 56, 2257 (1972).
                 Note: He and Ne are unpublished basis sets taken from the Gaussian program.
                 Note: Li and B from J. D. Dill and J. A. Pople, J. Chem. Phys. 62, 2921 (1975).
   Na - Ar     : M. M. Francl, W. J. Pietro, W. J. Hehre, J. S. Binkley, M. S. Gordon, 
                 D. J. DeFrees and J. A. Pople, J. Chem. Phys. 77, 3654 (1982).
   K - Zn      : V. A. Rassolov, J. A. Pople, M. A. Ratner, and T. L. Windus, J. Chem. Phys. 109, 1223 (1998).

================================================================================
                                        WARNINGS
                       Please study these warnings very carefully!
================================================================================


WARNING: No MP2 level density has been requested!
         To calculate MP2 level properties use
         %mp2 Density relaxed end
         or
         %mp2 Density unrelaxed end

WARNING: Post HF methods need fully converged wavefunctions
  ===> : Setting SCFConvForced true
         You can overwrite this default with %scf ConvForced false 


================================================================================
                                       INPUT FILE
================================================================================
NAME = 5.inp
|  1> ! MP2 6-31G** 
|  2> 
|  3> * xyzfile 0 1 /home/vivek/mm-project/vivek/xtb-goat/l/L_CONF/5.xyz
|  4> 
|  5>                          ****END OF INPUT****
================================================================================

                       ****************************
                       * Single Point Calculation *
                       ****************************

---------------------------------
CARTESIAN COORDINATES (ANGSTROEM)
---------------------------------
  C     -8.904494    6.303893   -1.933524
  C     -9.724653    6.636743   -0.695396
  H     -7.833008    8.051293   -1.825734
  H     -7.140000    6.787808   -1.036131
  C     -8.583684    4.808092   -2.006571
  O    -10.747356    7.461817   -0.964553
  H    -11.722250    3.335264   -2.204494
  N     -7.653719    7.053578   -1.870804
  C     -9.696336    3.957307   -2.623894
  H     -7.678160    4.707042   -2.607121
  H     -8.365724    4.451877   -0.996997
  C     -9.221196    2.510189   -2.743950
  H     -8.315755    2.450930   -3.343227
  C    -10.980337    4.021014   -1.800816
  H     -9.009549    2.099629   -1.759218
  H     -9.984614    1.895368   -3.214842
  H     -9.906411    4.338310   -3.629887
  H    -10.782510    3.743938   -0.767464
  H    -11.404919    5.021488   -1.816606
  H     -9.449843    6.632177   -2.823549
  H    -11.214732    7.704933   -0.148755
  O     -9.450344    6.294337    0.425020

----------------------------
CARTESIAN COORDINATES (A.U.)
----------------------------
  NO LB      ZA    FRAG     MASS         X           Y           Z
   0 C     6.0000    0    12.011  -16.827055   11.912632   -3.653831
   1 C     6.0000    0    12.011  -18.376931   12.541627   -1.314107
   2 H     1.0000    0     1.008  -14.802240   15.214739   -3.450137
   3 H     1.0000    0     1.008  -13.492645   12.827099   -1.958004
   4 C     6.0000    0    12.011  -16.220813    9.085976   -3.791870
   5 O     8.0000    0    15.999  -20.309560   14.100790   -1.822741
   6 H     1.0000    0     1.008  -22.151842    6.302736   -4.165890
   7 N     7.0000    0    14.007  -14.463433   13.329331   -3.535307
   8 C     6.0000    0    12.011  -18.323419    7.478226   -4.958442
   9 H     1.0000    0     1.008  -14.509620    8.895020   -4.926745
  10 H     1.0000    0     1.008  -15.808927    8.412827   -1.884051
  11 C     6.0000    0    12.011  -17.425535    4.743570   -5.185314
  12 H     1.0000    0     1.008  -15.714500    4.631586   -6.317784
  13 C     6.0000    0    12.011  -20.749830    7.598616   -3.403049
  14 H     1.0000    0     1.008  -17.025581    3.967723   -3.324440
  15 H     1.0000    0     1.008  -18.868186    3.581726   -6.075171
  16 H     1.0000    0     1.008  -18.720404    8.198219   -6.859492
  17 H     1.0000    0     1.008  -20.375992    7.075017   -1.450298
  18 H     1.0000    0     1.008  -21.552173    9.489237   -3.432889
  19 H     1.0000    0     1.008  -17.857615   12.532997   -5.335734
  20 H     1.0000    0     1.008  -21.192772   14.560213   -0.281106
  21 O     8.0000    0    15.999  -17.858563   11.894574    0.803171

--------------------------------
INTERNAL COORDINATES (ANGSTROEM)
--------------------------------
 C      0   0   0     0.000000000000     0.00000000     0.00000000
 C      1   0   0     1.521976235298     0.00000000     0.00000000
 H      1   2   0     2.052585089699    93.00390418     0.00000000
 H      3   1   2     1.643206164176    65.84550238    91.63263572
 C      1   2   3     1.531560566775   111.42393588   143.13440483
 O      2   1   3     1.341310550419   112.46741070    81.57960900
 H      5   1   2     3.472605528175   103.15738165    61.60517481
 N      3   1   2     1.014697366722    41.65463769   125.51178308
 C      5   1   2     1.530658466153   114.19380994    83.79610008
 H      5   1   2     1.091258492595   106.88785494   204.74123661
 H      5   1   2     1.092536749935   108.43006169   321.21204200
 C      9   5   1     1.527848471334   109.39577347   175.57844818
 H     12   9   5     1.087413377275   110.72389739   302.20890360
 C      7   5   1     1.087953971946    25.20132054   313.32543939
 H     12   9   5     1.087681556336   110.29728428    62.24603210
 H     12   9   5     1.087451902091   110.56131797   182.09425862
 H      9   5   1     1.096046009850   108.43800241    57.45728665
 H     14   7   5     1.087989868359   108.41417790   244.27465631
 H     14   7   5     1.086953025344   107.96273549   126.78213120
 H      1   2   3     1.094220973900   109.11755042   266.07191433
 H      6   2   1     0.971119014700   110.63282991   183.89735576
 O      2   1   3     1.203252981663   124.91863762   266.89485458

---------------------------
INTERNAL COORDINATES (A.U.)
---------------------------
 C      0   0   0     0.000000000000     0.00000000     0.00000000
 C      1   0   0     2.876118267049     0.00000000     0.00000000
 H      1   2   0     3.878823686101    93.00390418     0.00000000
 H      3   1   2     3.105209631864    65.84550238    91.63263572
 C      1   2   3     2.894230028718   111.42393588   143.13440483
 O      2   1   3     2.534709600832   112.46741070    81.57960900
 H      5   1   2     6.562273419393   103.15738165    61.60517481
 N      3   1   2     1.917500131915    41.65463769   125.51178308
 C      5   1   2     2.892525305597   114.19380994    83.79610008
 H      5   1   2     2.062179692319   106.88785494   204.74123661
 H      5   1   2     2.064595248622   108.43006169   321.21204200
 C      9   5   1     2.887215184952   109.39577347   175.57844818
 H     12   9   5     2.054913477412   110.72389739   302.20890360
 C      7   5   1     2.055935053290    25.20132054   313.32543939
 H     12   9   5     2.055420262392   110.29728428    62.24603210
 H     12   9   5     2.054986278765   110.56131797   182.09425862
 H      9   5   1     2.071226788794   108.43800241    57.45728665
 H     14   7   5     2.056002887680   108.41417790   244.27465631
 H     14   7   5     2.054043538337   107.96273549   126.78213120
 H      1   2   3     2.067777970664   109.11755042   266.07191433
 H      6   2   1     1.835148981227   110.63282991   183.89735576
 O      2   1   3     2.273818605168   124.91863762   266.89485458

---------------------
BASIS SET INFORMATION
---------------------
There are 4 groups of distinct atoms

 Group   1 Type C   : 10s4p1d contracted to 3s2p1d pattern {631/31/1}
 Group   2 Type H   : 4s1p contracted to 2s1p pattern {31/1}
 Group   3 Type O   : 10s4p1d contracted to 3s2p1d pattern {631/31/1}
 Group   4 Type N   : 10s4p1d contracted to 3s2p1d pattern {631/31/1}

Atom   0C    basis set group =>   1
Atom   1C    basis set group =>   1
Atom   2H    basis set group =>   2
Atom   3H    basis set group =>   2
Atom   4C    basis set group =>   1
Atom   5O    basis set group =>   3
Atom   6H    basis set group =>   2
Atom   7N    basis set group =>   4
Atom   8C    basis set group =>   1
Atom   9H    basis set group =>   2
Atom  10H    basis set group =>   2
Atom  11C    basis set group =>   1
Atom  12H    basis set group =>   2
Atom  13C    basis set group =>   1
Atom  14H    basis set group =>   2
Atom  15H    basis set group =>   2
Atom  16H    basis set group =>   2
Atom  17H    basis set group =>   2
Atom  18H    basis set group =>   2
Atom  19H    basis set group =>   2
Atom  20H    basis set group =>   2
Atom  21O    basis set group =>   3
------------------------------------------------------------------------------
                             ORCA STARTUP CALCULATIONS
------------------------------------------------------------------------------
------------------------------------------------------------------------------
                   ___                                                        
                  /   \      - P O W E R E D   B Y -                         
                 /     \                                                     
                 |  |  |   _    _      __       _____    __    __             
                 |  |  |  | |  | |    /  \     |  _  \  |  |  /  |          
                  \  \/   | |  | |   /    \    | | | |  |  | /  /          
                 / \  \   | |__| |  /  /\  \   | |_| |  |  |/  /          
                |  |  |   |  __  | /  /__\  \  |    /   |      \           
                |  |  |   | |  | | |   __   |  |    \   |  |\   \          
                \     /   | |  | | |  |  |  |  | |\  \  |  | \   \       
                 \___/    |_|  |_| |__|  |__|  |_| \__\ |__|  \__/        
                                                                              
                      - O R C A' S   B I G   F R I E N D -                    
                                      &                                       
                       - I N T E G R A L  F E E D E R -                       
                                                                              
 v1 FN, 2020, v2 2021, v3 2022-2024                                           
------------------------------------------------------------------------------


----------------------
SHARK INTEGRAL PACKAGE
----------------------

Number of atoms                             ...     22
Number of basis functions                   ...    191
Number of shells                            ...     93
Maximum angular momentum                    ...      2
Integral batch strategy                     ... SHARK/LIBINT Hybrid
RI-J (if used) integral strategy            ... SPLIT-RIJ (Revised 2003 algorithm where possible)
Printlevel                                  ...      1
Contraction scheme used                     ... SEGMENTED contraction
Prescreening option                         ... SCHWARTZ
   Thresh                                   ... 1.000e-10
   Tcut                                     ... 1.000e-11
   Tpresel                                  ... 1.000e-11 
Coulomb Range Separation                    ... NOT USED
Exchange Range Separation                   ... NOT USED
Multipole approximations                    ... NOT USED
Finite Nucleus Model                        ... NOT USED
CABS basis                                  ... NOT available
Auxiliary Coulomb fitting basis             ... NOT available
Auxiliary J/K fitting basis                 ... NOT available
Auxiliary Correlation fitting basis         ... NOT available
Auxiliary 'external' fitting basis          ... NOT available

Checking pre-screening integrals            ... done (  0.0 sec) Dimension = 93
   => SHARK Basis and OBASIS are compatible. Storing Pre-screening
Shell pair information
Shell pair cut-off parameter TPreSel        ...   1.0e-11
Total number of shell pairs                 ...      4371
Shell pairs after pre-screening             ...      3900
Total number of primitive shell pairs       ...     20328
Primitive shell pairs kept                  ...     12035
          la=0 lb=0:   1290 shell pairs
          la=1 lb=0:   1454 shell pairs
          la=1 lb=1:    437 shell pairs
          la=2 lb=0:    429 shell pairs
          la=2 lb=1:    248 shell pairs
          la=2 lb=2:     42 shell pairs

Checking whether 4 symmetric matrices of dimension 191 fit in memory
:Max Core in MB      =   4096.00
 MB in use           =      6.40
 MB left             =   4089.60
 MB needed           =      0.56
 Data fit in memory  = YES
Calculating Nuclear repulsion               ... done (  0.0 sec) ENN=    490.658391060650 Eh

Diagonalization of the overlap matrix:
Smallest eigenvalue                        ... 3.019e-03
Time for diagonalization                   ...    0.002 sec
Threshold for overlap eigenvalues          ... 1.000e-07
Number of eigenvalues below threshold      ... 0
Time for construction of square roots      ...    0.001 sec
Total time needed                          ...    0.003 sec

-------------------
DFT GRID GENERATION
-------------------

General Integration Accuracy     IntAcc      ... 4.388
Radial Grid Type                 RadialGrid  ... OptM3 with GC (2021)
Angular Grid (max. ang.)         AngularGrid ... 4 (Lebedev-302)
Angular grid pruning method      GridPruning ... 4 (adaptive)
Weight generation scheme         WeightScheme... mBecke (2022)
Basis function cutoff            BFCut       ... 1.0000e-10
Integration weight cutoff        WCut        ... 1.0000e-14
Partially contracted basis set               ... off
Rotationally invariant grid construction     ... off
Angular grids for H and He will be reduced by one unit

Total number of grid points                  ...    95574
Total number of batches                      ...     1504
Average number of points per batch           ...       63
Average number of grid points per atom       ...     4344
Grids setup in   0.4 sec
Initializing property integral containers    ... done (  0.0 sec)

SHARK setup successfully completed in   0.4 seconds

Maximum memory used throughout the entire STARTUP-calculation: 38.3 MB
-------------------------------------------------------------------------------
                                 ORCA GUESS
                   Start orbitals & Density for SCF / CASSCF
-------------------------------------------------------------------------------

------------
SCF SETTINGS
------------
Hamiltonian:
 Ab initio Hamiltonian  Method          .... Hartree-Fock(GTOs)


General Settings:
 Integral files         IntName         .... 5
 Hartree-Fock type      HFTyp           .... RHF
 Total Charge           Charge          ....    0
 Multiplicity           Mult            ....    1
 Number of Electrons    NEL             ....   72
 Basis Dimension        Dim             ....  191
 Nuclear Repulsion      ENuc            ....    490.6583910607 Eh

Convergence Acceleration:
 AO-DIIS                CNVDIIS         .... on
   Start iteration      DIISMaxIt       ....    12
   Startup error        DIISStart       ....  0.200000
   # of expansion vecs  DIISMaxEq       ....     5
   Bias factor          DIISBfac        ....   1.050
   Max. coefficient     DIISMaxC        ....  10.000
 MO-DIIS                CNVKDIIS        .... off
 Trust-Rad. Augm. Hess. CNVTRAH         .... auto
   Auto Start mean grad. ratio tolernc. ....  1.125000
   Auto Start start iteration           ....    50
   Auto Start num. interpolation iter.  ....    10
   Max. Number of Micro iterations      ....    24
   Max. Number of Macro iterations      .... Maxiter - #DIIS iter
   Number of Davidson start vectors     ....     2
   Converg. threshold    (grad. norm)   ....   5.000e-05
   Grad. Scal. Fac. for Micro threshold ....   0.100
   Minimum threshold for Micro iter.    ....   1.000e-02
   NR start threshold (gradient norm)   ....   1.000e-04
   Initial trust radius                 ....   0.400
   Minimum AH scaling param. (alpha)    ....   1.000
   Maximum AH scaling param. (alpha)    .... 1000.000
   Quad. conv. algorithm                .... NR
   White noise on init. David. guess    .... on
   Maximum white noise                  ....   0.010
   Pseudo random numbers                .... off
   Inactive MOs                         .... canonical
   Orbital update algorithm             .... Taylor
   Preconditioner                       .... Diag
   Full preconditioner red. dimension   ....   250
 SOSCF                 CNVSOSCF           .... on
   Start iteration     SOSCFMaxIt         ....   150
   Startup grad/error  SOSCFStart         ....  0.003300
   Hessian update      SOSCFHessUp        .... L-BFGS
   Autom. constraints  SOSCFAutoConstrain .... off
 Level Shifting         CNVShift        .... on
   Level shift para.    LevelShift      ....    0.2500
   Turn off err/grad.   ShiftErr        ....    0.0010
 Zerner damping         CNVZerner       .... off
 Static damping         CNVDamp         .... on
   Fraction old density DampFac         ....    0.7000
   Max. Damping (<1)    DampMax         ....    0.9800
   Min. Damping (>=0)   DampMin         ....    0.0000
   Turn off err/grad.   DampErr         ....    0.1000

SCF Procedure:
 Maximum # iterations   MaxIter         ....   125
 SCF integral mode      SCFMode         .... Direct
   Integral package                     .... SHARK and LIBINT hybrid scheme
 Reset frequency        DirectResetFreq ....    20
 Integral Threshold     Thresh          ....  1.000e-10 Eh
 Primitive CutOff       TCut            ....  1.000e-11 Eh

Convergence Tolerance:
 Convergence Check Mode ConvCheckMode   .... Total+1el-Energy
 Convergence forced     ConvForced      .... 1
 Energy Change          TolE            ....  1.000e-06 Eh
 1-El. energy change                    ....  1.000e-03 Eh
 Orbital Gradient       TolG            ....  5.000e-05
 Orbital Rotation angle TolX            ....  5.000e-05
 DIIS Error             TolErr          ....  1.000e-06

------------------------------
INITIAL GUESS: MODEL POTENTIAL
------------------------------
Loading Hartree-Fock densities                     ... done
Calculating cut-offs                               ... done
Initializing the effective Hamiltonian             ... done
Setting up the integral package (SHARK)            ... done
Starting the Coulomb interaction                   ... done (   0.1 sec)
Making the grid                                    ... done (   0.1 sec)
Mapping shells                                     ... done
Starting the XC term evaluation                    ... done (   0.0 sec)
Transforming the Hamiltonian                       ... done (   0.0 sec)
Diagonalizing the Hamiltonian                      ... done (   0.0 sec)
Back transforming the eigenvectors                 ... done (   0.0 sec)
Now organizing SCF variables                       ... done
                      ------------------
                      INITIAL GUESS DONE (   0.2 sec)
                      ------------------
             **** ENERGY FILE WAS UPDATED (5.en.tmp) ****
Finished Guess after   0.2 sec
Maximum memory used throughout the entire GUESS-calculation: 11.6 MB

-------------------------------------------------------------------------------------------
                                      ORCA LEAN-SCF
                              memory conserving SCF solver
-------------------------------------------------------------------------------------------

----------------------------------------D-I-I-S--------------------------------------------
Iteration    Energy (Eh)           Delta-E    RMSDP     MaxDP     DIISErr   Damp  Time(sec)
-------------------------------------------------------------------------------------------
               ***  Starting incremental Fock matrix formation  ***
    1    -438.5388070341318780     0.00e+00  2.48e-03  6.46e-02  2.46e-01  0.700   1.9
    2    -438.7017115718236937    -1.63e-01  1.89e-03  4.65e-02  1.52e-01  0.700   1.8
                               ***Turning on AO-DIIS***
    3    -438.7975268407916474    -9.58e-02  1.02e-03  2.28e-02  8.85e-02  0.700   1.7
    4    -438.8576792586710553    -6.02e-02  2.31e-03  4.78e-02  6.08e-02  0.000   1.7
    5    -438.9903827529807359    -1.33e-01  2.68e-04  4.91e-03  5.19e-03  0.000   1.8
                              *** Initializing SOSCF ***
---------------------------------------S-O-S-C-F--------------------------------------
Iteration    Energy (Eh)           Delta-E    RMSDP     MaxDP     MaxGrad    Time(sec)
--------------------------------------------------------------------------------------
    6    -438.9908685503053221    -4.86e-04  1.30e-04  2.16e-03  2.72e-03     1.6
               *** Restarting incremental Fock matrix formation ***
    7    -438.9909745151013567    -1.06e-04  7.65e-05  2.07e-03  1.46e-03     1.9
    8    -438.9910043737629621    -2.99e-05  7.15e-05  1.57e-03  5.00e-04     1.5
    9    -438.9910150115794067    -1.06e-05  1.21e-05  2.49e-04  1.72e-04     1.5
   10    -438.9910156581041747    -6.47e-07  8.03e-06  1.69e-04  7.11e-05     1.3
                 **** Energy Check signals convergence ****

               *****************************************************
               *                     SUCCESS                       *
               *           SCF CONVERGED AFTER  10 CYCLES          *
               *****************************************************

             **** ENERGY FILE WAS UPDATED (5.en.tmp) ****

----------------
TOTAL SCF ENERGY
----------------

Total Energy       :       -438.99101579183400 Eh          -11945.55284 eV

Components:
Nuclear Repulsion  :        490.65839106065027 Eh           13351.49360 eV
Electronic Energy  :       -929.64940685248428 Eh          -25297.04644 eV
One Electron Energy:      -1571.83944797625122 Eh          -42771.92586 eV
Two Electron Energy:        642.19004112376695 Eh           17474.87942 eV

Virial components:
Potential Energy   :       -877.61914997269844 Eh          -23881.23117 eV
Kinetic Energy     :        438.62813418086444 Eh           11935.67833 eV
Virial Ratio       :          2.00082731038593

---------------
SCF CONVERGENCE
---------------

  Last Energy change         ...    6.4652e-07  Tolerance :   1.0000e-06
  Last MAX-Density change    ...    1.6872e-04  Tolerance :   1.0000e-05
  Last RMS-Density change    ...    8.0316e-06  Tolerance :   1.0000e-06
  Last DIIS Error            ...    2.7184e-03  Tolerance :   1.0000e-06
  Last Orbital Gradient      ...    7.1115e-05  Tolerance :   5.0000e-05
  Last Orbital Rotation      ...    1.4083e-04  Tolerance :   5.0000e-05


----------------
ORBITAL ENERGIES
----------------

  NO   OCC          E(Eh)            E(eV) 
   0   2.0000     -20.619521      -561.0857 
   1   2.0000     -20.552792      -559.2699 
   2   2.0000     -15.555019      -423.2736 
   3   2.0000     -11.382732      -309.7399 
   4   2.0000     -11.271085      -306.7018 
   5   2.0000     -11.226301      -305.4832 
   6   2.0000     -11.219195      -305.2898 
   7   2.0000     -11.210110      -305.0426 
   8   2.0000     -11.209706      -305.0316 
   9   2.0000      -1.468343       -39.9557 
  10   2.0000      -1.361780       -37.0559 
  11   2.0000      -1.201272       -32.6883 
  12   2.0000      -1.092857       -29.7382 
  13   2.0000      -0.989900       -26.9366 
  14   2.0000      -0.933423       -25.3997 
  15   2.0000      -0.907318       -24.6894 
  16   2.0000      -0.804495       -21.8914 
  17   2.0000      -0.768699       -20.9174 
  18   2.0000      -0.711112       -19.3503 
  19   2.0000      -0.696506       -18.9529 
  20   2.0000      -0.665604       -18.1120 
  21   2.0000      -0.646055       -17.5801 
  22   2.0000      -0.623873       -16.9765 
  23   2.0000      -0.599287       -16.3074 
  24   2.0000      -0.589639       -16.0449 
  25   2.0000      -0.578371       -15.7383 
  26   2.0000      -0.559485       -15.2244 
  27   2.0000      -0.538617       -14.6565 
  28   2.0000      -0.516940       -14.0666 
  29   2.0000      -0.506475       -13.7819 
  30   2.0000      -0.485368       -13.2075 
  31   2.0000      -0.467327       -12.7166 
  32   2.0000      -0.463783       -12.6202 
  33   2.0000      -0.456506       -12.4222 
  34   2.0000      -0.455517       -12.3952 
  35   2.0000      -0.394668       -10.7395 
  36   0.0000       0.181125         4.9287 
  37   0.0000       0.215949         5.8763 
  38   0.0000       0.234347         6.3769 
  39   0.0000       0.246435         6.7058 
  40   0.0000       0.257922         7.0184 
  41   0.0000       0.293222         7.9790 
  42   0.0000       0.297910         8.1065 
  43   0.0000       0.305353         8.3091 
  44   0.0000       0.313689         8.5359 
  45   0.0000       0.323272         8.7967 
  46   0.0000       0.335871         9.1395 
*Only the first 10 virtual orbitals were printed.

                    ********************************
                    * MULLIKEN POPULATION ANALYSIS *
                    ********************************

-----------------------
MULLIKEN ATOMIC CHARGES
-----------------------
   0 C :   -0.016982
   1 C :    0.797593
   2 H :    0.273417
   3 H :    0.281393
   4 C :   -0.219443
   5 O :   -0.643413
   6 H :    0.115299
   7 N :   -0.689425
   8 C :   -0.134526
   9 H :    0.141651
  10 H :    0.140191
  11 C :   -0.318937
  12 H :    0.112585
  13 C :   -0.348490
  14 H :    0.111769
  15 H :    0.111662
  16 H :    0.113002
  17 H :    0.125391
  18 H :    0.114833
  19 H :    0.157467
  20 H :    0.369660
  21 O :   -0.594697
Sum of atomic charges:   -0.0000000

--------------------------------
MULLIKEN REDUCED ORBITAL CHARGES
--------------------------------
  0 C s       :     3.207169  s :     3.207169
      pz      :     0.938995  p :     2.739847
      px      :     0.852169
      py      :     0.948683
      dz2     :     0.011468  d :     0.069966
      dxz     :     0.021407
      dyz     :     0.007813
      dx2y2   :     0.014376
      dxy     :     0.014902

  1 C s       :     2.963340  s :     2.963340
      pz      :     0.825385  p :     2.093161
      px      :     0.647219
      py      :     0.620557
      dz2     :     0.040108  d :     0.145906
      dxz     :     0.038839
      dyz     :     0.028279
      dx2y2   :     0.018107
      dxy     :     0.020572

  2 H s       :     0.700488  s :     0.700488
      pz      :     0.006219  p :     0.026094
      px      :     0.004556
      py      :     0.015320

  3 H s       :     0.692564  s :     0.692564
      pz      :     0.012890  p :     0.026043
      px      :     0.008425
      py      :     0.004728

  4 C s       :     3.232796  s :     3.232796
      pz      :     1.069626  p :     2.938911
      px      :     1.002097
      py      :     0.867188
      dz2     :     0.010509  d :     0.047736
      dxz     :     0.010594
      dyz     :     0.006165
      dx2y2   :     0.012666
      dxy     :     0.007801

  5 O s       :     3.842303  s :     3.842303
      pz      :     1.607384  p :     4.775731
      px      :     1.501151
      py      :     1.667196
      dz2     :     0.006944  d :     0.025378
      dxz     :     0.006563
      dyz     :     0.003500
      dx2y2   :     0.003335
      dxy     :     0.005037

  6 H s       :     0.872063  s :     0.872063
      pz      :     0.002783  p :     0.012638
      px      :     0.005153
      py      :     0.004703

  7 N s       :     3.613568  s :     3.613568
      pz      :     1.582373  p :     4.041004
      px      :     1.287006
      py      :     1.171625
      dz2     :     0.009676  d :     0.034853
      dxz     :     0.005720
      dyz     :     0.002194
      dx2y2   :     0.010133
      dxy     :     0.007130

  8 C s       :     3.232596  s :     3.232596
      pz      :     0.995922  p :     2.845917
      px      :     0.913041
      py      :     0.936953
      dz2     :     0.012158  d :     0.056013
      dxz     :     0.011754
      dyz     :     0.008354
      dx2y2   :     0.012087
      dxy     :     0.011660

  9 H s       :     0.845833  s :     0.845833
      pz      :     0.003924  p :     0.012515
      px      :     0.006988
      py      :     0.001604

 10 H s       :     0.847184  s :     0.847184
      pz      :     0.008321  p :     0.012625
      px      :     0.001914
      py      :     0.002389

 11 C s       :     3.248333  s :     3.248333
      pz      :     1.046754  p :     3.028341
      px      :     1.041518
      py      :     0.940069
      dz2     :     0.007603  d :     0.042263
      dxz     :     0.009825
      dyz     :     0.007330
      dx2y2   :     0.008875
      dxy     :     0.008630

 12 H s       :     0.874760  s :     0.874760
      pz      :     0.004018  p :     0.012655
      px      :     0.006825
      py      :     0.001812

 13 C s       :     3.254918  s :     3.254918
      pz      :     1.024376  p :     3.051424
      px      :     0.968065
      py      :     1.058983
      dz2     :     0.011864  d :     0.042148
      dxz     :     0.008472
      dyz     :     0.003678
      dx2y2   :     0.007406
      dxy     :     0.010729

 14 H s       :     0.875612  s :     0.875612
      pz      :     0.007677  p :     0.012619
      px      :     0.002107
      py      :     0.002836

 15 H s       :     0.875687  s :     0.875687
      pz      :     0.003195  p :     0.012652
      px      :     0.005310
      py      :     0.004147

 16 H s       :     0.874832  s :     0.874832
      pz      :     0.007810  p :     0.012166
      px      :     0.001900
      py      :     0.002456

 17 H s       :     0.862034  s :     0.862034
      pz      :     0.008394  p :     0.012575
      px      :     0.001969
      py      :     0.002212

 18 H s       :     0.872302  s :     0.872302
      pz      :     0.001907  p :     0.012864
      px      :     0.003115
      py      :     0.007842

 19 H s       :     0.830545  s :     0.830545
      pz      :     0.006811  p :     0.011989
      px      :     0.003169
      py      :     0.002008

 20 H s       :     0.589007  s :     0.589007
      pz      :     0.020484  p :     0.041333
      px      :     0.011881
      py      :     0.008969

 21 O s       :     3.877487  s :     3.877487
      pz      :     1.419605  p :     4.684608
      px      :     1.686328
      py      :     1.578675
      dz2     :     0.010064  d :     0.032601
      dxz     :     0.009206
      dyz     :     0.010578
      dx2y2   :     0.001848
      dxy     :     0.000904



                     *******************************
                     * LOEWDIN POPULATION ANALYSIS *
                     *******************************

----------------------
LOEWDIN ATOMIC CHARGES
----------------------
   0 C :   -0.015965
   1 C :    0.229714
   2 H :    0.128655
   3 H :    0.134465
   4 C :   -0.107900
   5 O :   -0.212900
   6 H :    0.064937
   7 N :   -0.273475
   8 C :   -0.065762
   9 H :    0.073974
  10 H :    0.072373
  11 C :   -0.177045
  12 H :    0.062996
  13 C :   -0.187381
  14 H :    0.063199
  15 H :    0.062799
  16 H :    0.056991
  17 H :    0.068153
  18 H :    0.062699
  19 H :    0.075871
  20 H :    0.199587
  21 O :   -0.315985

-------------------------------
LOEWDIN REDUCED ORBITAL CHARGES
-------------------------------
  0 C s       :     2.871114  s :     2.871114
      pz      :     1.018056  p :     3.006030
      px      :     0.962221
      py      :     1.025753
      dz2     :     0.022781  d :     0.138821
      dxz     :     0.042816
      dyz     :     0.014695
      dx2y2   :     0.029352
      dxy     :     0.029176

  1 C s       :     2.852003  s :     2.852003
      pz      :     1.053755  p :     2.602916
      px      :     0.809111
      py      :     0.740050
      dz2     :     0.086921  d :     0.315367
      dxz     :     0.084263
      dyz     :     0.060328
      dx2y2   :     0.037232
      dxy     :     0.046623

  2 H s       :     0.789764  s :     0.789764
      pz      :     0.020134  p :     0.081581
      px      :     0.015405
      py      :     0.046042

  3 H s       :     0.783504  s :     0.783504
      pz      :     0.041581  p :     0.082030
      px      :     0.026168
      py      :     0.014282

  4 C s       :     2.892873  s :     2.892873
      pz      :     1.080294  p :     3.124539
      px      :     1.054579
      py      :     0.989666
      dz2     :     0.018560  d :     0.090488
      dxz     :     0.018483
      dyz     :     0.012053
      dx2y2   :     0.025103
      dxy     :     0.016288

  5 O s       :     3.461247  s :     3.461247
      pz      :     1.578083  p :     4.703457
      px      :     1.488488
      py      :     1.636886
      dz2     :     0.010553  d :     0.048195
      dxz     :     0.012933
      dyz     :     0.006245
      dx2y2   :     0.005864
      dxy     :     0.012600

  6 H s       :     0.895340  s :     0.895340
      pz      :     0.009260  p :     0.039723
      px      :     0.015979
      py      :     0.014485

  7 N s       :     3.193408  s :     3.193408
      pz      :     1.540385  p :     4.018581
      px      :     1.303312
      py      :     1.174884
      dz2     :     0.013452  d :     0.061486
      dxz     :     0.010977
      dyz     :     0.002999
      dx2y2   :     0.020015
      dxy     :     0.014043

  8 C s       :     2.872322  s :     2.872322
      pz      :     1.044177  p :     3.082641
      px      :     1.017582
      py      :     1.020882
      dz2     :     0.022521  d :     0.110799
      dxz     :     0.023437
      dyz     :     0.015819
      dx2y2   :     0.025022
      dxy     :     0.024000

  9 H s       :     0.885616  s :     0.885616
      pz      :     0.012795  p :     0.040410
      px      :     0.021438
      py      :     0.006177

 10 H s       :     0.886541  s :     0.886541
      pz      :     0.024696  p :     0.041087
      px      :     0.007749
      py      :     0.008641

 11 C s       :     2.908167  s :     2.908167
      pz      :     1.083272  p :     3.193686
      px      :     1.076934
      py      :     1.033480
      dz2     :     0.012844  d :     0.075192
      dxz     :     0.016022
      dyz     :     0.013567
      dx2y2   :     0.016652
      dxy     :     0.016107

 12 H s       :     0.897365  s :     0.897365
      pz      :     0.012654  p :     0.039640
      px      :     0.020366
      py      :     0.006619

 13 C s       :     2.907960  s :     2.907960
      pz      :     1.074952  p :     3.204488
      px      :     1.047443
      py      :     1.082093
      dz2     :     0.020445  d :     0.074932
      dxz     :     0.015965
      dyz     :     0.006117
      dx2y2   :     0.013421
      dxy     :     0.018985

 14 H s       :     0.897013  s :     0.897013
      pz      :     0.022654  p :     0.039789
      px      :     0.007524
      py      :     0.009611

 15 H s       :     0.897599  s :     0.897599
      pz      :     0.010387  p :     0.039601
      px      :     0.016109
      py      :     0.013105

 16 H s       :     0.904478  s :     0.904478
      pz      :     0.022609  p :     0.038531
      px      :     0.007217
      py      :     0.008705

 17 H s       :     0.891567  s :     0.891567
      pz      :     0.025055  p :     0.040280
      px      :     0.007103
      py      :     0.008122

 18 H s       :     0.896864  s :     0.896864
      pz      :     0.006833  p :     0.040437
      px      :     0.010217
      py      :     0.023387

 19 H s       :     0.884578  s :     0.884578
      pz      :     0.021419  p :     0.039551
      px      :     0.010029
      py      :     0.008103

 20 H s       :     0.680362  s :     0.680362
      pz      :     0.059082  p :     0.120051
      px      :     0.033799
      py      :     0.027170

 21 O s       :     3.547358  s :     3.547358
      pz      :     1.501918  p :     4.711350
      px      :     1.654387
      py      :     1.555046
      dz2     :     0.023641  d :     0.057277
      dxz     :     0.014110
      dyz     :     0.015386
      dx2y2   :     0.002143
      dxy     :     0.001997



                      *****************************
                      * MAYER POPULATION ANALYSIS *
                      *****************************

  NA   - Mulliken gross atomic population
  ZA   - Total nuclear charge
  QA   - Mulliken gross atomic charge
  VA   - Mayer's total valence
  BVA  - Mayer's bonded valence
  FA   - Mayer's free valence

  ATOM       NA         ZA         QA         VA         BVA        FA
  0 C      6.0170     6.0000    -0.0170     3.7332     3.7332     0.0000
  1 C      5.2024     6.0000     0.7976     3.6355     3.6355    -0.0000
  2 H      0.7266     1.0000     0.2734     0.9037     0.9037     0.0000
  3 H      0.7186     1.0000     0.2814     0.9048     0.9048    -0.0000
  4 C      6.2194     6.0000    -0.2194     3.7473     3.7473    -0.0000
  5 O      8.6434     8.0000    -0.6434     1.8258     1.8258    -0.0000
  6 H      0.8847     1.0000     0.1153     0.9550     0.9550    -0.0000
  7 N      7.6894     7.0000    -0.6894     2.7701     2.7701    -0.0000
  8 C      6.1345     6.0000    -0.1345     3.8050     3.8050     0.0000
  9 H      0.8583     1.0000     0.1417     0.9520     0.9520    -0.0000
 10 H      0.8598     1.0000     0.1402     0.9539     0.9539     0.0000
 11 C      6.3189     6.0000    -0.3189     3.8447     3.8447     0.0000
 12 H      0.8874     1.0000     0.1126     0.9536     0.9536     0.0000
 13 C      6.3485     6.0000    -0.3485     3.8284     3.8284    -0.0000
 14 H      0.8882     1.0000     0.1118     0.9529     0.9529     0.0000
 15 H      0.8883     1.0000     0.1117     0.9542     0.9542     0.0000
 16 H      0.8870     1.0000     0.1130     0.9437     0.9437     0.0000
 17 H      0.8746     1.0000     0.1254     0.9524     0.9524     0.0000
 18 H      0.8852     1.0000     0.1148     0.9567     0.9567     0.0000
 19 H      0.8425     1.0000     0.1575     0.9418     0.9418     0.0000
 20 H      0.6303     1.0000     0.3697     0.8737     0.8737     0.0000
 21 O      8.5947     8.0000    -0.5947     1.8795     1.8795     0.0000

  Mayer bond orders larger than 0.100000
B(  0-C ,  1-C ) :   0.8965 B(  0-C ,  4-C ) :   0.9597 B(  0-C ,  7-N ) :   0.9771 
B(  0-C , 19-H ) :   0.9610 B(  1-C ,  5-O ) :   0.9556 B(  1-C , 21-O ) :   1.8085 
B(  2-H ,  7-N ) :   0.9073 B(  3-H ,  7-N ) :   0.8986 B(  4-C ,  8-C ) :   0.9701 
B(  4-C ,  9-H ) :   0.9679 B(  4-C , 10-H ) :   0.9565 B(  5-O , 20-H ) :   0.8415 
B(  6-H , 13-C ) :   0.9766 B(  8-C , 11-C ) :   0.9826 B(  8-C , 13-C ) :   0.9695 
B(  8-C , 16-H ) :   0.9718 B( 11-C , 12-H ) :   0.9764 B( 11-C , 14-H ) :   0.9719 
B( 11-C , 15-H ) :   0.9766 B( 13-C , 17-H ) :   0.9681 B( 13-C , 18-H ) :   0.9706 


-------
TIMINGS
-------

Total SCF time: 0 days 0 hours 0 min 18 sec 

Total time                  ....      18.052 sec
Sum of individual times     ....      16.771 sec  ( 92.9%)

SCF preparation             ....       0.016 sec  (  0.1%)
Fock matrix formation       ....      16.704 sec  ( 92.5%)
  Startup                   ....       0.001 sec  (  0.0% of F)
  Coulomb+Exchange Fock     ....      17.976 sec  (107.6% of F)
Diagonalization             ....       0.000 sec  (  0.0%)
Density matrix formation    ....       0.003 sec  (  0.0%)
Total Energy calculation    ....       0.001 sec  (  0.0%)
Population analysis         ....       0.003 sec  (  0.0%)
Orbital Transformation      ....       0.006 sec  (  0.0%)
Orbital Orthonormalization  ....       0.000 sec  (  0.0%)
DIIS solution               ....       0.027 sec  (  0.1%)
SOSCF solution              ....       0.011 sec  (  0.1%)
Finished LeanSCF after  18.1 sec

Maximum memory used throughout the entire LEANSCF-calculation: 15.2 MB

------------------------------------------------------------------------------
                                ORCA  MP2 
------------------------------------------------------------------------------

Freezing NCore=18 chemical core electrons

----------
MP2 ENERGY (disk based algorithm)
----------

Dimension of the basis                      ...  191
Memory devoted to MP2                       ... 4096 MB   
Data format for buffers                     ... DOUBLE
Compression type for matrix containers      ... UNCOMPRESSED

-------------------------
SHARK HALF TRANSFORMATION (Exchange order)
-------------------------

Number of basis functions                   ...    191
Number of operators                         ...      1
   Operator  0:    9-  35 (p-index in (p*|q*))
   Operator  0:    9-  35 (q-index in (p*|q*)
Integral generator used                     ... SHARK
Contraction scheme used                     ... SEGMENTED CONTRACTION
MaxCore in resort                           ...   4096 MB

Half transformed integrals for op=   0      ... 5.SHARK_MNPQ0.tmp
Resorted half transformed integrals         ... 5.KAO_aa.tmp

Half trafo (segmented) done. Total time = 11.9 sec. integrals= 10.8 sec trafo=  1.1 sec

----------------------
SHARK INTEGRAL SORTING (Exchange)
----------------------

Input container                             ... 5.SHARK_MNPQ0.tmp
Output container                            ... 5.KAO_aa.tmp
Range of AO-indices                         ...    0 -  190
Range of bra indices i                      ...    9 -   35
Range of ket indices j                      ...    9 -   35
Symmetric i,j range                         ... YES
Number of (i,j) pairs generated             ...  378
Max Core memory in MB                       ...   4096

Available core memory in MB                 ...   4086.15
MB needed for one item                      ...      0.28
Fixed MB needed                             ...      0.00
Number of items                             ...       378
Number of batches                           ...         1
Items treated per batch                     ...       378
Batch   0                                   ...      0-   377 (   378)
   => Closing output file and leaving
done (  0.1 sec)

SHARK half integral transformation done. Total time = 12.1 sec.


Finished integral transformation - now doing MP2 part

OPERATOR COMBINATION   0   0: ij=(  9.. 35,  9.. 35)
  Internal MO  11
  Internal MO  14
  Internal MO  17
  Internal MO  20
  Internal MO  23
  Internal MO  26
  Internal MO  29
  Internal MO  32
  Internal MO  35
-----------------------------------------------
 MP2 CORRELATION ENERGY   :     -1.370008436 Eh
-----------------------------------------------


-------
TIMINGS
-------
Total time                :   12.243 sec
Integral trafo            :   12.089 sec ( 98.7%)
K(i,j)                    :    0.128 sec (  1.0%)
T(i,j)                    :    0.004 sec (  0.0%)

---------------------------------------
MP2 TOTAL ENERGY:     -440.361024228 Eh
---------------------------------------

Maximum memory used throughout the entire MP2-calculation: 116.1 MB

-------------------------   --------------------
FINAL SINGLE POINT ENERGY      -440.361024227920
-------------------------   --------------------


------------------------------------------------------------------------------
                              ORCA PROPERTY CALCULATIONS
------------------------------------------------------------------------------

GBWName                                 ... 5.gbw
Number of atoms                         ...     22
Number of basis functions               ...    191
Max core memory                         ...   4096 MB

Electric properties:
Dipole moment                           ... YES
Quadrupole moment                       ...  NO
Static polarizability (Dipole/Dipole)   ...  NO
Static polarizability (Dipole/Quad.)    ...  NO
Static polarizability (Quad./Quad.)     ...  NO
Static polarizability (Velocity)        ...  NO
Static hyperpolarizability              ...  NO

Atomic electric properties:
Dipole moment                           ...  NO
Quadrupole moment                       ...  NO
Static polarizability                   ...  NO

Choice of electric origin               ... Center of mass
Position of electric origin             ...   -17.864992    10.368844    -2.924439

General magnetic properties:
Magnetizability                         ...  NO

EPR properties:
g-Tensor (aka g-matrix)                 ...  NO
Zero-Field splitting spin-orbit         ...  NO
Zero-field splitting spin-spin          ...  NO
Hyperfine couplings                     ...  NO (   0 nuclei)
Quadrupole couplings                    ...  NO (   0 nuclei)
Contact density                         ...  NO (   0 nuclei)

NMR properties:
Chemical shifts                         ...  NO (   0 nuclei)
Spin-rotation constants                 ...  NO (   0 nuclei)
Spin-spin couplings                     ...  NO (   0 nuclei,    0 pairs)

Choice of magnetic origin               ... GIAO
Position of magnetic origin             ...     0.000000     0.000000     0.000000

Properties with geometric perturbations:
SCF Hessian                             ...  NO
IR spectrum                             ...  NO
VCD spectrum                            ...  NO
X-ray spectroscopy properties:
SCF XES/XAS/RIXS spectra                ...  NO

SCF SOC stabilization energy            ...  NO
Diagonal Born-Oppenheimer correction    ...  NO

-------------
DIPOLE MOMENT
-------------

Method             : SCF
Type of density    : Electron Density
Multiplicity       :   1
Irrep              :   0
Energy             :  -438.9910157918340019 Eh
Basis              : AO
                                X                 Y                 Z
Electronic contribution:     -0.495784146       9.763479989       5.468911171
Nuclear contribution   :      0.076419463      -9.435538669      -5.645507444
                        -----------------------------------------
Total Dipole Moment    :     -0.419364683       0.327941320      -0.176596273
                        -----------------------------------------
Magnitude (a.u.)       :      0.560890801
Magnitude (Debye)      :      1.425671115



--------------------
Rotational spectrum 
--------------------
 
Rotational constants in cm-1:             0.079087             0.035587             0.029318 
Rotational constants in MHz :          2370.959652          1066.884015           878.921888 

Dipole components along the rotational axes: 
x,y,z [a.u.] :     0.211036    -0.284957    -0.434582 
x,y,z [Debye]:     0.536411    -0.724303    -1.104621 

 

Dipole moment calculation done in   0.0 sec 

Maximum memory used throughout the entire PROP-calculation: 10.0 MB

--------------------------------
SUGGESTED CITATIONS FOR THIS RUN
--------------------------------

Below you find a list of papers that are relevant to this ORCA run
We neither can nor want to force you to cite these papers, but we appreciate if you do
You receive ORCA, which is the product of decades of hard work by many enthusiastic individuals, for free
The only thing we kindly ask in return is that you cite our papers,
We deeply appreciate it, if you show your appreciation for ORCA by not just citing the generic ORCA reference.

Please note that relegating all ORCA citations to the supporting information does *not* help us.
SI sections are not indexed - citations you put there will not count into any citation statistics
But we need these citations in order to attract the funding resources that allow us to do what we are doing

Therefore, if you are a happy ORCA user, please consider citing a few of the papers listed below in the main body of your paper

In addition to the list printed below, the program has created the file 5.bibtex that contains the list in bibtex format
You can import this file easily into all common literature databanks and citation aid programs


List of essential papers. We consider these as the minimum necessary citations

  1. Neese, F.
     Software update: the ORCA program system, version 6.0
     WIRES Comput. Molec. Sci. 2025 15(1), e70019
     doi.org/10.1002/wcms.7019

List of papers to cite with high priority. The work reported in these papers was absolutely
necessary for this run to complete.
Our perspective: the developers of density functionals and basis sets usually get cited in chemistry papers
Good! But without the algorithms to do something with them, the functionals or basis sets would not do anything.
Hence, in our opinion, the algorithm design and method developments papers are equally worthy of getting cited

  1. Neese, F.
     The SHARK Integral Generation and Digestion System
     J. Comp. Chem. 2022 44(3), 381
     doi.org/10.1002/jcc.26942

List of suggested additional citations. These are papers that are important in the 'surrounding' of 
of this run, or papers that preceded the highly important papers. If you like your results we are grateful for a citation.

  1. Neese, F.
     The ORCA program system
     WIRES Comput. Molec. Sci. 2012 2(1), 73-78
     doi.org/10.1002/wcms.81
  2. Neese, F.
     Software update: the ORCA program system, version 4.0
     WIRES Comput. Molec. Sci. 2018 8(1), 1-6
     doi.org/10.1002/wcms.1327
  3. Neese, F.; Wennmohs, F.; Becker, U.; Riplinger, C.
     The ORCA quantum chemistry program package
     J. Chem. Phys. 2020 152(22), 224108
     doi.org/10.1063/5.0004608
  4. Neese, F.
     Software update: The ORCA program system—Version 5.0
     WIRES Comput. Molec. Sci. 2022 12(1), e1606
     doi.org/10.1002/wcms.1606

List of optional additional citations

  1. Neese, F.
     Approximate second-order SCF convergence for spin unrestricted wavefunctions
     Chem. Phys. Lett. 2000 325(1-3), 93-98
     doi.org/10.1016/s0009-2614(00)00662-x

Timings for individual modules:

Sum of individual times          ...       31.050 sec (=   0.517 min)
Startup calculation              ...        0.442 sec (=   0.007 min)   1.4 %
SCF iterations                   ...       18.316 sec (=   0.305 min)  59.0 %
Property calculations            ...        0.024 sec (=   0.000 min)   0.1 %
MP2 module                       ...       12.267 sec (=   0.204 min)  39.5 %
                             ****ORCA TERMINATED NORMALLY****
TOTAL RUN TIME: 0 days 0 hours 0 minutes 31 seconds 86 msec
