
                                 *****************
                                 * O   R   C   A *
                                 *****************

                                            #,                                       
                                            ###                                      
                                            ####                                     
                                            #####                                    
                                            ######                                   
                                           ########,                                 
                                     ,,################,,,,,                         
                               ,,#################################,,                 
                          ,,##########################################,,             
                       ,#########################################, ''#####,          
                    ,#############################################,,   '####,        
                  ,##################################################,,,,####,       
                ,###########''''           ''''###############################       
              ,#####''   ,,,,##########,,,,          '''####'''          '####       
            ,##' ,,,,###########################,,,                        '##       
           ' ,,###''''                  '''############,,,                           
         ,,##''                                '''############,,,,        ,,,,,,###''
      ,#''                                            '''#######################'''  
     '                                                          ''''####''''         
             ,#######,   #######,   ,#######,      ##                                
            ,#'     '#,  ##    ##  ,#'     '#,    #''#        ,####,    ,#,          
            ##       ##  ##   ,#'  ##            #'  '#       #'       ,# #          
            ##       ##  #######   ##           ,######,      #####,      #          
            '#,     ,#'  ##    ##  '#,     ,#' ,#      #,     #,   #      #          
             '#######'   ##     ##  '#######'  #'      '#     '####' #    #          



                #########################################################
                #                        -***-                          #
                #          Department of theory and spectroscopy        #
                #                                                       #
                #                      Frank Neese                      #
                #                                                       #
                #     Directorship, Architecture, Infrastructure        #
                #                    SHARK, DRIVERS                     #
                #        Core code/Algorithms in most modules           #
                #                                                       #
                #        Max Planck Institute fuer Kohlenforschung      #
                #                Kaiser Wilhelm Platz 1                 #
                #                 D-45470 Muelheim/Ruhr                 #
                #                      Germany                          #
                #                                                       #
                #                  All rights reserved                  #
                #                        -***-                          #
                #########################################################


                         Program Version 6.1.0  -  RELEASE   -
                                (GIT: $679e74b$)
                          ($2025-06-10 18:02:51 +0200$)


 With contributions from (in alphabetic order):
[Max-Planck-Institut fuer Kohlenforschung]                               
  Daniel Aravena         : Magnetic Suceptibility                        
  Michael Atanasov       : Ab Initio Ligand Field Theory (pilot matlab implementation)
  Alexander A. Auer      : GIAO ZORA, VPT2 properties, NMR spectrum      
  Ute Becker             : All parallelization in ORCA, NUMFREQ, NUMCALC 
  Giovanni Bistoni       : ED, misc. LED, open-shell LED, HFLD           
  Dmytro Bykov           : pre 5.0 version of the SCF Hessian            
  Marcos Casanova-Páez   : Triplet and SCS-CIS(D). UHF-(DLPNO)-IP/EA/STEOM-CCSD. UHF-CVS-IP/STEOM-CCSD   
  Vijay G. Chilkuri      : MRCI spin determinant printing, contributions to CSF-ICE 
  Pauline Colinet        : FMM embedding                                 
  Dipayan Datta          : RHF DLPNO-CCSD density                        
  Achintya Kumar Dutta   : EOM-CC, STEOM-CC                              
  Nicolas Foglia         : Exact transition moments, OPA infrastructure, MCD improvements    
  Dmitry Ganyushin       : Spin-Orbit,Spin-Spin,Magnetic field MRCI      
  Miquel Garcia-Rates    : C-PCM and meta-GGA Hessian, CCSD/C-PCM, Gaussian charge scheme 
  Tiago L. C. Gouveia    : GS-ROHF, GS-ROCIS                             
  Yang Guo               : DLPNO-NEVPT2, F12-NEVPT2, CIM, IAO-localization        
  Andreas Hansen         : Spin unrestricted coupled pair/coupled cluster methods 
  Ingolf Harden          : AUTO-CI MPn and infrastructure                
  Benjamin Helmich-Paris : MC-RPA, TRAH-(SCF,CASSCF), AVAS, COSX integrals, SCF dyn. polar., MC-PDFT, srDFT 
  Lee Huntington         : MR-EOM, pCC                                   
  Robert Izsak           : Overlap fitted RIJCOSX, COSX-SCS-MP3, EOM     
  Riya Kayal             : Wick's Theorem for AUTO-CI, AUTO-CI UHF-CCSDT 
  Emily Kempfer          : AUTO-CI RHF CISDT and CCSDT, approximate NEVPT4
  Christian Kollmar      : KDIIS, OOCD, Brueckner-CCSD(T), CCSD density, CASPT2, CASPT2-K, improved NEVPT2 
  Axel Koslowski         : Symmetry handling                             
  Simone Kossmann        : meta-GGA functionals, TD-DFT gradient, OOMP2, (MP2 Hessian; deprecated post 5.0) 
  Lucas Lang             : DCDCAS, Hyperfine gauge corrections, ICE-SOC+SSC
  Marvin Lechner         : AUTO-CI (C++ implementation), FIC-MRCC        
  Spencer Leger          : CASSCF response                               
  Dagmar Lenk            : GEPOL surface, SMD, ORCA-2-JSON               
  Dimitrios Liakos       : Extrapolation schemes; Compound Job, Property file
  Dimitrios Manganas     : Further ROCIS development; embedding schemes. LFT, Crystal Embedding 
  Dimitrios Pantazis     : SARC Basis sets                               
  Anastasios Papadopoulos: AUTO-CI, single reference methods and gradients 
  Taras Petrenko         : pre 6.0 DFT Hessian and TD-DFT gradient,  ECA, NRVS 
  Petra Pikulova         : Analytic Raman intensities                    
  Peter Pinski           : DLPNO-MP2, DLPNO-MP2 Gradient                 
  Shashank Vittal Rao    : ES-AILFT, MagRelax                            
  Christoph Reimann      : Effective Core Potentials                     
  Marius Retegan         : Local ZFS, SOC                                
  Christoph Riplinger    : Optimizer, TS searches, QM/MM, DLPNO-CCSD(T), (RO)-DLPNO pert. Triples 
  Michael Roemelt        : Original ROCIS implementation, recursive CI coupling coefficients
  Masaaki Saitow         : Open-shell DLPNO-CCSD energy and density      
  Barbara Sandhoefer     : DKH picture change effects                    
  Yorick L. A. Schmerwitz: GMF and freeze-and-release deltaSCF, NEB S-IDPP initial path                    
  Kantharuban Sivalingam : CASSCF convergence/infrastructure, NEVPT2, NEVPT3, NEVPT4(SD), FIC-MRCI and CEPA variants
  Bernardo de Souza      : ESD, SOC TD-DFT                               
  Georgi L. Stoychev     : AutoAux, RI-MP2 NMR, DLPNO-MP2 response, X2C  
  Van Anh Tran           : RI-MP2 g-tensors                              
  Willem Van den Heuvel  : Paramagnetic NMR                              
  Zikuan Wang            : NOTCH, Electric field optimization            
  Frank Wennmohs         : Technical directorship and infrastructure     
  Hang Xu                : AUTO-CI-Response properties                   
                                                                         
[FACCTs GmbH]                                                            
  Markus Bursch, Nicolas Foglia, Miquel Garcia-Rates, Ingolf Harden, Hagen Neugebauer, Anastasios Papadopoulos, 
  Christoph Riplinger, Bernardo de Souza, Georgi L. Stoychev                                                    
                                                                 
  APM, various basis sets, CI-OPT, improved COSX, DLPNO-Multilevel,           
  DOCKER, DRACO, updates on ESD, Fragmentator, GOAT, IRC, LR-CPCM, L-BFGS, MBIS, meta-GGA TD-DFT gradient, ML-optimized integration grids, 
  MM, NACMEs, nearIR, NEB, NEB-TS, NL-DFT gradient (VV10), 2- and 3-layer-ONIOM, interface openCOSMO-RS, QMMM,   
  Crystal-QMMM, RESP, rigid body optimization, SF, symmetry and pop. for TD-DFT, various functionals, SOLVATOR                                   
                                                                         
[Other institutions]                                                     
  V. Asgeirsson          : NEB                                           
  Christoph Bannwarth    : sTDA-DFT, sTD-DFT, PBEh-3c, B97-3c, D3        
  Giovanni Bistoni       : ETS/NOCV, ADLD/ADEX, COVALED                  
  Martin Brehm           : Molecular dynamics                            
  Ronald Cardenas        : ETS/NOCV                                      
  Martina Colucci        : COVALED                                       
  Sebastian Ehlert       : rSCAN, r2SCAN, r2SCAN-3c, D4, dhf basis sets  
  Marvin Friede          : D4 for Fr, Ra, Ac-Lr                          
  Lars Goerigk           : TD-DFT with DH, B97 family of functionals     
  Stefan Grimme          : VdW corrections, initial TS optimization, DFT functionals, gCP, sTDA/sTD-DF 
  Waldemar Hujo          : DFT-NL                                        
  H. Jonsson             : NEB                                           
  Holger Kruse           : gCP                                           
  Marcel Mueller         : wB97X-3c, vDZP basis set                      
  Hagen Neugebauer       : wr2SCAN, Native XTB                           
  Gianluca Regni         : ADLD/ADEX                                     
  Tobias Risthaus        : pre 6.0 range-separated hybrid DFT and stability analysis
  Lukas Wittmann         : regularized MP2, r2SCAN double-hybrids, wr2SCAN        
                                                                         
We gratefully acknowledge several colleagues who have allowed us to      
interface, adapt or use parts of their codes:                            
  Ed Valeev, F. Pavosevic, A. Kumar             : LibInt (2-el integral package), F12 methods 
  Garnet Chan, S. Sharma, J. Yang, R. Olivares  : DMRG                   
  Ulf Ekstrom                                   : XCFun DFT Library      
  Mihaly Kallay                                 : mrcc  (arbitrary order and MRCC methods)
  Frank Weinhold                                : gennbo (NPA and NBO analysis)           
  Simon Mueller                                 : openCOSMO-RS                            
  Christopher J. Cramer and Donald G. Truhlar   : smd solvation model                     
  S Lehtola, MJT Oliveira, MAL Marques          : LibXC Library                           
  Liviu Ungur et al                             : ANISO software                          


 Your calculation uses the libint2 library for the computation of 2-el integrals
 For citations please refer to: http://libint.valeyev.net

 Your ORCA version has been built with support for libXC version: 7.0.0
 For citations please refer to: https://libxc.gitlab.io

 This ORCA versions uses:
   CBLAS   interface :  Fast vector & matrix operations
   LAPACKE interface :  Fast linear algebra routines
   SCALAPACK package :  Parallel linear algebra routines
   Shared memory     :  Shared parallel matrices
   BLAS/LAPACK       :  OpenBLAS 0.3.29  USE64BITINT DYNAMIC_ARCH NO_AFFINITY Haswell SINGLE_THREADED
        Core in use  :  Haswell
   Copyright (c) 2011-2014, The OpenBLAS Project


  ***********************************
  * Starting time: Sat Aug 16 15:55:57 2025
  * Host name:     CHEMLAB02
  * Process ID:    1907196
  * Working dir.:  /home/vivek/mm-project/vivek/xtb-goat/MP2/l/5
  ***********************************



***************************************
The coordinates will be read from file: /home/vivek/mm-project/vivek/xtb-goat/xtb-goat/l/L_CONF/5.xyz
***************************************


================================================================================

----- Orbital basis set information -----
Your calculation utilizes the basis: 6-31G**
   H-He, Li-Ne : W. J. Hehre, R. Ditchfield and J.A. Pople, J. Chem. Phys. 56, 2257 (1972).
                 Note: He and Ne are unpublished basis sets taken from the Gaussian program.
                 Note: Li and B from J. D. Dill and J. A. Pople, J. Chem. Phys. 62, 2921 (1975).
   Na - Ar     : M. M. Francl, W. J. Pietro, W. J. Hehre, J. S. Binkley, M. S. Gordon, 
                 D. J. DeFrees and J. A. Pople, J. Chem. Phys. 77, 3654 (1982).
   K - Zn      : V. A. Rassolov, J. A. Pople, M. A. Ratner, and T. L. Windus, J. Chem. Phys. 109, 1223 (1998).

================================================================================
                                        WARNINGS
                       Please study these warnings very carefully!
================================================================================


WARNING: No MP2 level density has been requested!
         To calculate MP2 level properties use
         %mp2 Density relaxed end
         or
         %mp2 Density unrelaxed end

WARNING: Post HF methods need fully converged wavefunctions
  ===> : Setting SCFConvForced true
         You can overwrite this default with %scf ConvForced false 


================================================================================
                                       INPUT FILE
================================================================================
NAME = 5.inp
|  1> ! MP2 6-31G** 
|  2> 
|  3> * xyzfile 0 1 /home/vivek/mm-project/vivek/xtb-goat/xtb-goat/l/L_CONF/5.xyz
|  4> 
|  5>                          ****END OF INPUT****
================================================================================

                       ****************************
                       * Single Point Calculation *
                       ****************************

---------------------------------
CARTESIAN COORDINATES (ANGSTROEM)
---------------------------------
  C     -9.604096    6.500418   -2.235647
  C     -8.831787    6.799469   -0.958725
  H     -9.349704    8.403227   -2.962170
  H     -8.183743    7.343607   -3.429203
  C     -9.333625    5.077253   -2.732401
  H    -10.671765    6.656413   -2.053934
  H    -10.490782    3.097667   -0.124434
  N     -9.179719    7.448575   -3.261104
  C    -10.196588    4.004805   -2.062912
  H     -9.525226    5.074406   -3.806716
  H     -8.276730    4.850999   -2.573158
  C     -9.916063    2.650097   -2.711342
  H     -8.876720    2.367425   -2.559811
  C     -9.941158    3.929553   -0.559744
  H    -10.547831    1.879853   -2.275299
  H    -10.109822    2.687769   -3.780680
  H    -11.250785    4.256291   -2.226404
  H     -8.881462    3.782284   -0.362109
  H    -10.263321    4.841049   -0.062846
  O     -9.583271    7.423750   -0.039615
  H     -9.049733    7.656645    0.737670
  O     -7.655259    6.601256   -0.802827

----------------------------
CARTESIAN COORDINATES (A.U.)
----------------------------
  NO LB      ZA    FRAG     MASS         X           Y           Z
   0 C     6.0000    0    12.011  -18.149112   12.284009   -4.224761
   1 C     6.0000    0    12.011  -16.689658   12.849133   -1.811728
   2 H     1.0000    0     1.008  -17.668381   15.879798   -5.597690
   3 H     1.0000    0     1.008  -15.465033   13.877407   -6.480254
   4 C     6.0000    0    12.011  -17.637995    9.594618   -5.163490
   5 H     1.0000    0     1.008  -20.166713   12.578797   -3.881373
   6 H     1.0000    0     1.008  -19.824706    5.853742   -0.235146
   7 N     7.0000    0    14.007  -17.347155   14.075768   -6.162593
   8 C     6.0000    0    12.011  -19.268759    7.567984   -3.898339
   9 H     1.0000    0     1.008  -18.000069    9.589237   -7.193651
  10 H     1.0000    0     1.008  -15.640753    9.167060   -4.862563
  11 C     6.0000    0    12.011  -18.738643    5.007958   -5.123694
  12 H     1.0000    0     1.008  -16.774570    4.473785   -4.837341
  13 C     6.0000    0    12.011  -18.786065    7.425778   -1.057762
  14 H     1.0000    0     1.008  -19.932513    3.552408   -4.299693
  15 H     1.0000    0     1.008  -19.104795    5.079147   -7.144449
  16 H     1.0000    0     1.008  -21.260902    8.043225   -4.207295
  17 H     1.0000    0     1.008  -16.783531    7.147480   -0.684287
  18 H     1.0000    0     1.008  -19.394866    9.148256   -0.118761
  19 O     8.0000    0    15.999  -18.109758   14.028854   -0.074862
  20 H     1.0000    0     1.008  -17.101516   14.468961    1.393994
  21 O     8.0000    0    15.999  -14.466344   12.474565   -1.517123

--------------------------------
INTERNAL COORDINATES (ANGSTROEM)
--------------------------------
 C      0   0   0     0.000000000000     0.00000000     0.00000000
 C      1   0   0     1.521980102804     0.00000000     0.00000000
 H      1   2   0     2.052616373318    92.97624337     0.00000000
 H      3   1   2     1.643283120238    65.84375675    91.65712552
 C      1   2   3     1.531442695450   111.41486808   143.12678706
 H      1   2   3     1.094198451967   109.13475430   266.07571038
 H      5   1   2     3.472645692727   103.13776033    61.54425161
 N      3   1   2     1.014699934309    41.65844321   125.53682796
 C      5   1   2     1.530707536452   114.18271125    83.72811292
 H      5   1   2     1.091270338476   106.90259603   204.67640461
 H      5   1   2     1.092509239864   108.42286778   321.15160294
 C      9   5   1     1.527870307343   109.39536987   175.67736098
 H     12   9   5     1.087703192399   110.28823453    62.33069294
 C      7   5   1     1.087941129125    25.21431715   313.56924569
 H     12   9   5     1.087446839883   110.55978700   182.16965791
 H     12   9   5     1.087402465307   110.72712070   302.30373544
 H      9   5   1     1.096041323421   108.43598572    57.55744257
 H     14   7   5     1.087980789124   108.41382656   244.37467578
 H     14   7   5     1.086978123241   107.97215080   126.88314199
 O      2   1   3     1.341349824838   112.46033858    81.31767950
 H     20   2   1     0.971120539521   110.62552172   183.94685299
 O      2   1   3     1.203249455521   124.92498630   266.66311623

---------------------------
INTERNAL COORDINATES (A.U.)
---------------------------
 C      0   0   0     0.000000000000     0.00000000     0.00000000
 C      1   0   0     2.876125575577     0.00000000     0.00000000
 H      1   2   0     3.878882803573    92.97624337     0.00000000
 H      3   1   2     3.105355057745    65.84375675    91.65712552
 C      1   2   3     2.894007284194   111.41486808   143.12678706
 H      1   2   3     2.067735410378   109.13475430   266.07571038
 H      5   1   2     6.562349319394   103.13776033    61.54425161
 N      3   1   2     1.917504983952    41.65844321   125.53682796
 C      5   1   2     2.892618035023   114.18271125    83.72811292
 H      5   1   2     2.062202077791   106.90259603   204.67640461
 H      5   1   2     2.064543262120   108.42286778   321.15160294
 C      9   5   1     2.887256449028   109.39536987   175.67736098
 H     12   9   5     2.055461148625   110.28823453    62.33069294
 C      7   5   1     2.055910783876    25.21431715   313.56924569
 H     12   9   5     2.054976712577   110.55978700   182.16965791
 H     12   9   5     2.054892856781   110.72712070   302.30373544
 H      9   5   1     2.071217932725   108.43598572    57.55744257
 H     14   7   5     2.055985730413   108.41382656   244.37467578
 H     14   7   5     2.054090966489   107.97215080   126.88314199
 O      2   1   3     2.534783818726   112.46033858    81.31767950
 H     20   2   1     1.835151862721   110.62552172   183.94685299
 O      2   1   3     2.273811941724   124.92498630   266.66311623

---------------------
BASIS SET INFORMATION
---------------------
There are 4 groups of distinct atoms

 Group   1 Type C   : 10s4p1d contracted to 3s2p1d pattern {631/31/1}
 Group   2 Type H   : 4s1p contracted to 2s1p pattern {31/1}
 Group   3 Type N   : 10s4p1d contracted to 3s2p1d pattern {631/31/1}
 Group   4 Type O   : 10s4p1d contracted to 3s2p1d pattern {631/31/1}

Atom   0C    basis set group =>   1
Atom   1C    basis set group =>   1
Atom   2H    basis set group =>   2
Atom   3H    basis set group =>   2
Atom   4C    basis set group =>   1
Atom   5H    basis set group =>   2
Atom   6H    basis set group =>   2
Atom   7N    basis set group =>   3
Atom   8C    basis set group =>   1
Atom   9H    basis set group =>   2
Atom  10H    basis set group =>   2
Atom  11C    basis set group =>   1
Atom  12H    basis set group =>   2
Atom  13C    basis set group =>   1
Atom  14H    basis set group =>   2
Atom  15H    basis set group =>   2
Atom  16H    basis set group =>   2
Atom  17H    basis set group =>   2
Atom  18H    basis set group =>   2
Atom  19O    basis set group =>   4
Atom  20H    basis set group =>   2
Atom  21O    basis set group =>   4
------------------------------------------------------------------------------
                             ORCA STARTUP CALCULATIONS
------------------------------------------------------------------------------
------------------------------------------------------------------------------
                   ___                                                        
                  /   \      - P O W E R E D   B Y -                         
                 /     \                                                     
                 |  |  |   _    _      __       _____    __    __             
                 |  |  |  | |  | |    /  \     |  _  \  |  |  /  |          
                  \  \/   | |  | |   /    \    | | | |  |  | /  /          
                 / \  \   | |__| |  /  /\  \   | |_| |  |  |/  /          
                |  |  |   |  __  | /  /__\  \  |    /   |      \           
                |  |  |   | |  | | |   __   |  |    \   |  |\   \          
                \     /   | |  | | |  |  |  |  | |\  \  |  | \   \       
                 \___/    |_|  |_| |__|  |__|  |_| \__\ |__|  \__/        
                                                                              
                      - O R C A' S   B I G   F R I E N D -                    
                                      &                                       
                       - I N T E G R A L  F E E D E R -                       
                                                                              
 v1 FN, 2020, v2 2021, v3 2022-2024                                           
------------------------------------------------------------------------------


----------------------
SHARK INTEGRAL PACKAGE
----------------------

Number of atoms                             ...     22
Number of basis functions                   ...    191
Number of shells                            ...     93
Maximum angular momentum                    ...      2
Integral batch strategy                     ... SHARK/LIBINT Hybrid
RI-J (if used) integral strategy            ... SPLIT-RIJ (Revised 2003 algorithm where possible)
Printlevel                                  ...      1
Contraction scheme used                     ... SEGMENTED contraction
Prescreening option                         ... SCHWARTZ
   Thresh                                   ... 1.000e-10
   Tcut                                     ... 1.000e-11
   Tpresel                                  ... 1.000e-11 
Coulomb Range Separation                    ... NOT USED
Exchange Range Separation                   ... NOT USED
Multipole approximations                    ... NOT USED
Finite Nucleus Model                        ... NOT USED
CABS basis                                  ... NOT available
Auxiliary Coulomb fitting basis             ... NOT available
Auxiliary J/K fitting basis                 ... NOT available
Auxiliary Correlation fitting basis         ... NOT available
Auxiliary 'external' fitting basis          ... NOT available

Checking pre-screening integrals            ... done (  0.0 sec) Dimension = 93
   => SHARK Basis and OBASIS are compatible. Storing Pre-screening
Shell pair information
Shell pair cut-off parameter TPreSel        ...   1.0e-11
Total number of shell pairs                 ...      4371
Shell pairs after pre-screening             ...      3902
Total number of primitive shell pairs       ...     20328
Primitive shell pairs kept                  ...     12038
          la=0 lb=0:   1289 shell pairs
          la=1 lb=0:   1457 shell pairs
          la=1 lb=1:    437 shell pairs
          la=2 lb=0:    429 shell pairs
          la=2 lb=1:    248 shell pairs
          la=2 lb=2:     42 shell pairs

Checking whether 4 symmetric matrices of dimension 191 fit in memory
:Max Core in MB      =   4096.00
 MB in use           =      6.40
 MB left             =   4089.60
 MB needed           =      0.56
 Data fit in memory  = YES
Calculating Nuclear repulsion               ... done (  0.0 sec) ENN=    490.693122313460 Eh

Diagonalization of the overlap matrix:
Smallest eigenvalue                        ... 3.018e-03
Time for diagonalization                   ...    0.002 sec
Threshold for overlap eigenvalues          ... 1.000e-07
Number of eigenvalues below threshold      ... 0
Time for construction of square roots      ...    0.001 sec
Total time needed                          ...    0.003 sec

-------------------
DFT GRID GENERATION
-------------------

General Integration Accuracy     IntAcc      ... 4.388
Radial Grid Type                 RadialGrid  ... OptM3 with GC (2021)
Angular Grid (max. ang.)         AngularGrid ... 4 (Lebedev-302)
Angular grid pruning method      GridPruning ... 4 (adaptive)
Weight generation scheme         WeightScheme... mBecke (2022)
Basis function cutoff            BFCut       ... 1.0000e-10
Integration weight cutoff        WCut        ... 1.0000e-14
Partially contracted basis set               ... off
Rotationally invariant grid construction     ... off
Angular grids for H and He will be reduced by one unit

Total number of grid points                  ...    95553
Total number of batches                      ...     1505
Average number of points per batch           ...       63
Average number of grid points per atom       ...     4343
Grids setup in   0.4 sec
Initializing property integral containers    ... done (  0.0 sec)

SHARK setup successfully completed in   0.4 seconds

Maximum memory used throughout the entire STARTUP-calculation: 38.3 MB
-------------------------------------------------------------------------------
                                 ORCA GUESS
                   Start orbitals & Density for SCF / CASSCF
-------------------------------------------------------------------------------

------------
SCF SETTINGS
------------
Hamiltonian:
 Ab initio Hamiltonian  Method          .... Hartree-Fock(GTOs)


General Settings:
 Integral files         IntName         .... 5
 Hartree-Fock type      HFTyp           .... RHF
 Total Charge           Charge          ....    0
 Multiplicity           Mult            ....    1
 Number of Electrons    NEL             ....   72
 Basis Dimension        Dim             ....  191
 Nuclear Repulsion      ENuc            ....    490.6931223135 Eh

Convergence Acceleration:
 AO-DIIS                CNVDIIS         .... on
   Start iteration      DIISMaxIt       ....    12
   Startup error        DIISStart       ....  0.200000
   # of expansion vecs  DIISMaxEq       ....     5
   Bias factor          DIISBfac        ....   1.050
   Max. coefficient     DIISMaxC        ....  10.000
 MO-DIIS                CNVKDIIS        .... off
 Trust-Rad. Augm. Hess. CNVTRAH         .... auto
   Auto Start mean grad. ratio tolernc. ....  1.125000
   Auto Start start iteration           ....    50
   Auto Start num. interpolation iter.  ....    10
   Max. Number of Micro iterations      ....    24
   Max. Number of Macro iterations      .... Maxiter - #DIIS iter
   Number of Davidson start vectors     ....     2
   Converg. threshold    (grad. norm)   ....   5.000e-05
   Grad. Scal. Fac. for Micro threshold ....   0.100
   Minimum threshold for Micro iter.    ....   1.000e-02
   NR start threshold (gradient norm)   ....   1.000e-04
   Initial trust radius                 ....   0.400
   Minimum AH scaling param. (alpha)    ....   1.000
   Maximum AH scaling param. (alpha)    .... 1000.000
   Quad. conv. algorithm                .... NR
   White noise on init. David. guess    .... on
   Maximum white noise                  ....   0.010
   Pseudo random numbers                .... off
   Inactive MOs                         .... canonical
   Orbital update algorithm             .... Taylor
   Preconditioner                       .... Diag
   Full preconditioner red. dimension   ....   250
 SOSCF                 CNVSOSCF           .... on
   Start iteration     SOSCFMaxIt         ....   150
   Startup grad/error  SOSCFStart         ....  0.003300
   Hessian update      SOSCFHessUp        .... L-BFGS
   Autom. constraints  SOSCFAutoConstrain .... off
 Level Shifting         CNVShift        .... on
   Level shift para.    LevelShift      ....    0.2500
   Turn off err/grad.   ShiftErr        ....    0.0010
 Zerner damping         CNVZerner       .... off
 Static damping         CNVDamp         .... on
   Fraction old density DampFac         ....    0.7000
   Max. Damping (<1)    DampMax         ....    0.9800
   Min. Damping (>=0)   DampMin         ....    0.0000
   Turn off err/grad.   DampErr         ....    0.1000

SCF Procedure:
 Maximum # iterations   MaxIter         ....   125
 SCF integral mode      SCFMode         .... Direct
   Integral package                     .... SHARK and LIBINT hybrid scheme
 Reset frequency        DirectResetFreq ....    20
 Integral Threshold     Thresh          ....  1.000e-10 Eh
 Primitive CutOff       TCut            ....  1.000e-11 Eh

Convergence Tolerance:
 Convergence Check Mode ConvCheckMode   .... Total+1el-Energy
 Convergence forced     ConvForced      .... 1
 Energy Change          TolE            ....  1.000e-06 Eh
 1-El. energy change                    ....  1.000e-03 Eh
 Orbital Gradient       TolG            ....  5.000e-05
 Orbital Rotation angle TolX            ....  5.000e-05
 DIIS Error             TolErr          ....  1.000e-06

------------------------------
INITIAL GUESS: MODEL POTENTIAL
------------------------------
Loading Hartree-Fock densities                     ... done
Calculating cut-offs                               ... done
Initializing the effective Hamiltonian             ... done
Setting up the integral package (SHARK)            ... done
Starting the Coulomb interaction                   ... done (   0.1 sec)
Making the grid                                    ... done (   0.1 sec)
Mapping shells                                     ... done
Starting the XC term evaluation                    ... done (   0.0 sec)
Transforming the Hamiltonian                       ... done (   0.0 sec)
Diagonalizing the Hamiltonian                      ... done (   0.0 sec)
Back transforming the eigenvectors                 ... done (   0.0 sec)
Now organizing SCF variables                       ... done
                      ------------------
                      INITIAL GUESS DONE (   0.2 sec)
                      ------------------
             **** ENERGY FILE WAS UPDATED (5.en.tmp) ****
Finished Guess after   0.2 sec
Maximum memory used throughout the entire GUESS-calculation: 11.6 MB

-------------------------------------------------------------------------------------------
                                      ORCA LEAN-SCF
                              memory conserving SCF solver
-------------------------------------------------------------------------------------------

----------------------------------------D-I-I-S--------------------------------------------
Iteration    Energy (Eh)           Delta-E    RMSDP     MaxDP     DIISErr   Damp  Time(sec)
-------------------------------------------------------------------------------------------
               ***  Starting incremental Fock matrix formation  ***
    1    -438.5386633831197400     0.00e+00  2.49e-03  6.10e-02  2.50e-01  0.700   1.9
    2    -438.7016260120953461    -1.63e-01  1.89e-03  4.39e-02  1.52e-01  0.700   1.8
                               ***Turning on AO-DIIS***
    3    -438.7974764299261210    -9.59e-02  1.02e-03  2.27e-02  8.58e-02  0.700   1.8
    4    -438.8576491481515518    -6.02e-02  2.31e-03  4.78e-02  6.04e-02  0.000   1.7
    5    -438.9903859998360645    -1.33e-01  2.68e-04  5.70e-03  5.34e-03  0.000   1.8
                              *** Initializing SOSCF ***
---------------------------------------S-O-S-C-F--------------------------------------
Iteration    Energy (Eh)           Delta-E    RMSDP     MaxDP     MaxGrad    Time(sec)
--------------------------------------------------------------------------------------
    6    -438.9908698825890383    -4.84e-04  1.30e-04  3.03e-03  3.28e-03     1.6
               *** Restarting incremental Fock matrix formation ***
    7    -438.9909753671010435    -1.05e-04  7.67e-05  2.53e-03  1.46e-03     1.9
    8    -438.9910050956646614    -2.97e-05  7.18e-05  1.74e-03  5.01e-04     1.5
    9    -438.9910156876888436    -1.06e-05  1.20e-05  2.53e-04  1.72e-04     1.5
   10    -438.9910163312873124    -6.44e-07  8.04e-06  1.64e-04  7.11e-05     1.3
                 **** Energy Check signals convergence ****

               *****************************************************
               *                     SUCCESS                       *
               *           SCF CONVERGED AFTER  10 CYCLES          *
               *****************************************************

             **** ENERGY FILE WAS UPDATED (5.en.tmp) ****

----------------
TOTAL SCF ENERGY
----------------

Total Energy       :       -438.99101646382798 Eh          -11945.55286 eV

Components:
Nuclear Repulsion  :        490.69312231345970 Eh           13352.43868 eV
Electronic Energy  :       -929.68413877728767 Eh          -25297.99154 eV
One Electron Energy:      -1571.90915340482843 Eh          -42773.82264 eV
Two Electron Energy:        642.22501462754076 Eh           17475.83110 eV

Virial components:
Potential Energy   :       -877.61886162277165 Eh          -23881.22332 eV
Kinetic Energy     :        438.62784515894361 Eh           11935.67046 eV
Virial Ratio       :          2.00082797138598

---------------
SCF CONVERGENCE
---------------

  Last Energy change         ...    6.4360e-07  Tolerance :   1.0000e-06
  Last MAX-Density change    ...    1.6380e-04  Tolerance :   1.0000e-05
  Last RMS-Density change    ...    8.0419e-06  Tolerance :   1.0000e-06
  Last DIIS Error            ...    3.2828e-03  Tolerance :   1.0000e-06
  Last Orbital Gradient      ...    7.1132e-05  Tolerance :   5.0000e-05
  Last Orbital Rotation      ...    1.4086e-04  Tolerance :   5.0000e-05


----------------
ORBITAL ENERGIES
----------------

  NO   OCC          E(Eh)            E(eV) 
   0   2.0000     -20.619515      -561.0855 
   1   2.0000     -20.552798      -559.2701 
   2   2.0000     -15.555071      -423.2750 
   3   2.0000     -11.382741      -309.7401 
   4   2.0000     -11.271087      -306.7019 
   5   2.0000     -11.226296      -305.4830 
   6   2.0000     -11.219161      -305.2889 
   7   2.0000     -11.210103      -305.0424 
   8   2.0000     -11.209696      -305.0313 
   9   2.0000      -1.468336       -39.9555 
  10   2.0000      -1.361781       -37.0559 
  11   2.0000      -1.201290       -32.6888 
  12   2.0000      -1.092833       -29.7375 
  13   2.0000      -0.989895       -26.9364 
  14   2.0000      -0.933409       -25.3994 
  15   2.0000      -0.907306       -24.6890 
  16   2.0000      -0.804490       -21.8913 
  17   2.0000      -0.768661       -20.9163 
  18   2.0000      -0.711120       -19.3506 
  19   2.0000      -0.696515       -18.9531 
  20   2.0000      -0.665601       -18.1119 
  21   2.0000      -0.646063       -17.5803 
  22   2.0000      -0.623872       -16.9764 
  23   2.0000      -0.599300       -16.3078 
  24   2.0000      -0.589609       -16.0441 
  25   2.0000      -0.578371       -15.7383 
  26   2.0000      -0.559447       -15.2233 
  27   2.0000      -0.538593       -14.6559 
  28   2.0000      -0.516924       -14.0662 
  29   2.0000      -0.506470       -13.7817 
  30   2.0000      -0.485414       -13.2088 
  31   2.0000      -0.467347       -12.7171 
  32   2.0000      -0.463751       -12.6193 
  33   2.0000      -0.456540       -12.4231 
  34   2.0000      -0.455490       -12.3945 
  35   2.0000      -0.394667       -10.7394 
  36   0.0000       0.181167         4.9298 
  37   0.0000       0.215934         5.8759 
  38   0.0000       0.234311         6.3759 
  39   0.0000       0.246455         6.7064 
  40   0.0000       0.257955         7.0193 
  41   0.0000       0.293225         7.9791 
  42   0.0000       0.297938         8.1073 
  43   0.0000       0.305382         8.3099 
  44   0.0000       0.313675         8.5355 
  45   0.0000       0.323209         8.7950 
  46   0.0000       0.335856         9.1391 
*Only the first 10 virtual orbitals were printed.

                    ********************************
                    * MULLIKEN POPULATION ANALYSIS *
                    ********************************

-----------------------
MULLIKEN ATOMIC CHARGES
-----------------------
   0 C :   -0.016960
   1 C :    0.797733
   2 H :    0.273475
   3 H :    0.281329
   4 C :   -0.219384
   5 H :    0.157442
   6 H :    0.115309
   7 N :   -0.689464
   8 C :   -0.134486
   9 H :    0.141579
  10 H :    0.140252
  11 C :   -0.318944
  12 H :    0.111784
  13 C :   -0.348616
  14 H :    0.111666
  15 H :    0.112568
  16 H :    0.112987
  17 H :    0.125629
  18 H :    0.114690
  19 O :   -0.643504
  20 H :    0.369655
  21 O :   -0.594740
Sum of atomic charges:    0.0000000

--------------------------------
MULLIKEN REDUCED ORBITAL CHARGES
--------------------------------
  0 C s       :     3.207215  s :     3.207215
      pz      :     0.806790  p :     2.739778
      px      :     1.025133
      py      :     0.907855
      dz2     :     0.017219  d :     0.069967
      dxz     :     0.013096
      dyz     :     0.015364
      dx2y2   :     0.015866
      dxy     :     0.008423

  1 C s       :     2.963296  s :     2.963296
      pz      :     0.747693  p :     2.093070
      px      :     0.719116
      py      :     0.626261
      dz2     :     0.020650  d :     0.145901
      dxz     :     0.054875
      dyz     :     0.013020
      dx2y2   :     0.024360
      dxy     :     0.032996

  2 H s       :     0.700431  s :     0.700431
      pz      :     0.006394  p :     0.026094
      px      :     0.005360
      py      :     0.014340

  3 H s       :     0.692629  s :     0.692629
      pz      :     0.006733  p :     0.026042
      px      :     0.015505
      py      :     0.003803

  4 C s       :     3.232708  s :     3.232708
      pz      :     1.040857  p :     2.938938
      px      :     1.035574
      py      :     0.862507
      dz2     :     0.014434  d :     0.047737
      dxz     :     0.003864
      dyz     :     0.007466
      dx2y2   :     0.014249
      dxy     :     0.007725

  5 H s       :     0.830570  s :     0.830570
      pz      :     0.001481  p :     0.011989
      px      :     0.009134
      py      :     0.001373

  6 H s       :     0.872053  s :     0.872053
      pz      :     0.002969  p :     0.012638
      px      :     0.003624
      py      :     0.006046

  7 N s       :     3.613658  s :     3.613658
      pz      :     1.557415  p :     4.040952
      px      :     1.334964
      py      :     1.148573
      dz2     :     0.006667  d :     0.034854
      dxz     :     0.001694
      dyz     :     0.010677
      dx2y2   :     0.014790
      dxy     :     0.001026

  8 C s       :     3.232591  s :     3.232591
      pz      :     0.914160  p :     2.845886
      px      :     1.006869
      py      :     0.924856
      dz2     :     0.015623  d :     0.056009
      dxz     :     0.006301
      dyz     :     0.011204
      dx2y2   :     0.013281
      dxy     :     0.009601

  9 H s       :     0.845907  s :     0.845907
      pz      :     0.009035  p :     0.012514
      px      :     0.001917
      py      :     0.001563

 10 H s       :     0.847121  s :     0.847121
      pz      :     0.001861  p :     0.012627
      px      :     0.008822
      py      :     0.001944

 11 C s       :     3.248343  s :     3.248343
      pz      :     1.029780  p :     3.028338
      px      :     1.044637
      py      :     0.953921
      dz2     :     0.013250  d :     0.042262
      dxz     :     0.003178
      dyz     :     0.007043
      dx2y2   :     0.009762
      dxy     :     0.009030

 12 H s       :     0.875597  s :     0.875597
      pz      :     0.001952  p :     0.012619
      px      :     0.008374
      py      :     0.002293

 13 C s       :     3.254961  s :     3.254961
      pz      :     0.934556  p :     3.051510
      px      :     1.055461
      py      :     1.061493
      dz2     :     0.011269  d :     0.042145
      dxz     :     0.005236
      dyz     :     0.009406
      dx2y2   :     0.009863
      dxy     :     0.006370

 14 H s       :     0.875682  s :     0.875682
      pz      :     0.002946  p :     0.012651
      px      :     0.004248
      py      :     0.005457

 15 H s       :     0.874777  s :     0.874777
      pz      :     0.008781  p :     0.012655
      px      :     0.002086
      py      :     0.001789

 16 H s       :     0.874847  s :     0.874847
      pz      :     0.001782  p :     0.012166
      px      :     0.008426
      py      :     0.001958

 17 H s       :     0.861796  s :     0.861796
      pz      :     0.001992  p :     0.012576
      px      :     0.008705
      py      :     0.001878

 18 H s       :     0.872450  s :     0.872450
      pz      :     0.003489  p :     0.012860
      px      :     0.002595
      py      :     0.006776

 19 O s       :     3.842344  s :     3.842344
      pz      :     1.372904  p :     4.775780
      px      :     1.669043
      py      :     1.733834
      dz2     :     0.001882  d :     0.025380
      dxz     :     0.012126
      dyz     :     0.002157
      dx2y2   :     0.003802
      dxy     :     0.005414

 20 H s       :     0.589012  s :     0.589012
      pz      :     0.019814  p :     0.041332
      px      :     0.012227
      py      :     0.009292

 21 O s       :     3.877548  s :     3.877548
      pz      :     1.767996  p :     4.684590
      px      :     1.368081
      py      :     1.548514
      dz2     :     0.003563  d :     0.032602
      dxz     :     0.007606
      dyz     :     0.000596
      dx2y2   :     0.009374
      dxy     :     0.011463



                     *******************************
                     * LOEWDIN POPULATION ANALYSIS *
                     *******************************

----------------------
LOEWDIN ATOMIC CHARGES
----------------------
   0 C :   -0.015944
   1 C :    0.229737
   2 H :    0.128682
   3 H :    0.134440
   4 C :   -0.107940
   5 H :    0.075878
   6 H :    0.064940
   7 N :   -0.273478
   8 C :   -0.065742
   9 H :    0.073943
  10 H :    0.072400
  11 C :   -0.177044
  12 H :    0.063206
  13 C :   -0.187382
  14 H :    0.062798
  15 H :    0.062990
  16 H :    0.056975
  17 H :    0.068242
  18 H :    0.062650
  19 O :   -0.212953
  20 H :    0.199586
  21 O :   -0.315984

-------------------------------
LOEWDIN REDUCED ORBITAL CHARGES
-------------------------------
  0 C s       :     2.871114  s :     2.871114
      pz      :     0.957919  p :     3.006009
      px      :     1.044291
      py      :     1.003799
      dz2     :     0.035286  d :     0.138821
      dxz     :     0.026495
      dyz     :     0.031164
      dx2y2   :     0.030205
      dxy     :     0.015671

  1 C s       :     2.852008  s :     2.852008
      pz      :     0.899245  p :     2.602899
      px      :     0.998255
      py      :     0.705398
      dz2     :     0.043871  d :     0.315357
      dxz     :     0.120921
      dyz     :     0.026891
      dx2y2   :     0.053739
      dxy     :     0.069935

  2 H s       :     0.789734  s :     0.789734
      pz      :     0.022253  p :     0.081584
      px      :     0.016169
      py      :     0.043162

  3 H s       :     0.783536  s :     0.783536
      pz      :     0.022305  p :     0.082024
      px      :     0.047956
      py      :     0.011762

  4 C s       :     2.892840  s :     2.892840
      pz      :     1.062734  p :     3.124606
      px      :     1.072311
      py      :     0.989561
      dz2     :     0.025581  d :     0.090494
      dxz     :     0.006865
      dyz     :     0.015221
      dx2y2   :     0.027098
      dxy     :     0.015729

  5 H s       :     0.884570  s :     0.884570
      pz      :     0.005446  p :     0.039552
      px      :     0.027643
      py      :     0.006464

  6 H s       :     0.895335  s :     0.895335
      pz      :     0.009917  p :     0.039725
      px      :     0.011645
      py      :     0.018163

  7 N s       :     3.193462  s :     3.193462
      pz      :     1.540867  p :     4.018535
      px      :     1.315619
      py      :     1.162049
      dz2     :     0.011512  d :     0.061481
      dxz     :     0.004217
      dyz     :     0.017292
      dx2y2   :     0.024802
      dxy     :     0.003657

  8 C s       :     2.872340  s :     2.872340
      pz      :     1.019232  p :     3.082617
      px      :     1.047090
      py      :     1.016295
      dz2     :     0.031120  d :     0.110784
      dxz     :     0.012511
      dyz     :     0.023337
      dx2y2   :     0.025014
      dxy     :     0.018803

  9 H s       :     0.885651  s :     0.885651
      pz      :     0.026976  p :     0.040406
      px      :     0.007407
      py      :     0.006024

 10 H s       :     0.886505  s :     0.886505
      pz      :     0.007250  p :     0.041095
      px      :     0.026455
      py      :     0.007390

 11 C s       :     2.908172  s :     2.908172
      pz      :     1.071696  p :     3.193681
      px      :     1.083358
      py      :     1.038627
      dz2     :     0.022658  d :     0.075191
      dxz     :     0.005108
      dyz     :     0.013499
      dx2y2   :     0.017640
      dxy     :     0.016286

 12 H s       :     0.897007  s :     0.897007
      pz      :     0.007047  p :     0.039787
      px      :     0.024656
      py      :     0.008083

 13 C s       :     2.907978  s :     2.907978
      pz      :     1.033855  p :     3.204481
      px      :     1.088138
      py      :     1.082487
      dz2     :     0.021478  d :     0.074923
      dxz     :     0.010301
      dyz     :     0.017361
      dx2y2   :     0.015750
      dxy     :     0.010033

 14 H s       :     0.897600  s :     0.897600
      pz      :     0.009679  p :     0.039601
      px      :     0.013204
      py      :     0.016719

 15 H s       :     0.897369  s :     0.897369
      pz      :     0.025771  p :     0.039640
      px      :     0.007319
      py      :     0.006551

 16 H s       :     0.904492  s :     0.904492
      pz      :     0.006945  p :     0.038532
      px      :     0.024151
      py      :     0.007436

 17 H s       :     0.891468  s :     0.891468
      pz      :     0.007309  p :     0.040290
      px      :     0.025787
      py      :     0.007194

 18 H s       :     0.896927  s :     0.896927
      pz      :     0.011263  p :     0.040423
      px      :     0.008662
      py      :     0.020498

 19 O s       :     3.461268  s :     3.461268
      pz      :     1.357996  p :     4.703494
      px      :     1.652018
      py      :     1.693480
      dz2     :     0.007857  d :     0.048191
      dxz     :     0.019923
      dyz     :     0.007582
      dx2y2   :     0.005032
      dxy     :     0.007798

 20 H s       :     0.680364  s :     0.680364
      pz      :     0.054245  p :     0.120050
      px      :     0.037580
      py      :     0.028226

 21 O s       :     3.547354  s :     3.547354
      pz      :     1.729864  p :     4.711352
      px      :     1.460827
      py      :     1.520661
      dz2     :     0.007599  d :     0.057278
      dxz     :     0.013777
      dyz     :     0.000825
      dx2y2   :     0.020503
      dxy     :     0.014575



                      *****************************
                      * MAYER POPULATION ANALYSIS *
                      *****************************

  NA   - Mulliken gross atomic population
  ZA   - Total nuclear charge
  QA   - Mulliken gross atomic charge
  VA   - Mayer's total valence
  BVA  - Mayer's bonded valence
  FA   - Mayer's free valence

  ATOM       NA         ZA         QA         VA         BVA        FA
  0 C      6.0170     6.0000    -0.0170     3.7332     3.7332    -0.0000
  1 C      5.2023     6.0000     0.7977     3.6353     3.6353     0.0000
  2 H      0.7265     1.0000     0.2735     0.9037     0.9037     0.0000
  3 H      0.7187     1.0000     0.2813     0.9048     0.9048    -0.0000
  4 C      6.2194     6.0000    -0.2194     3.7474     3.7474    -0.0000
  5 H      0.8426     1.0000     0.1574     0.9418     0.9418     0.0000
  6 H      0.8847     1.0000     0.1153     0.9550     0.9550    -0.0000
  7 N      7.6895     7.0000    -0.6895     2.7700     2.7700     0.0000
  8 C      6.1345     6.0000    -0.1345     3.8050     3.8050    -0.0000
  9 H      0.8584     1.0000     0.1416     0.9520     0.9520    -0.0000
 10 H      0.8597     1.0000     0.1403     0.9539     0.9539    -0.0000
 11 C      6.3189     6.0000    -0.3189     3.8447     3.8447    -0.0000
 12 H      0.8882     1.0000     0.1118     0.9529     0.9529    -0.0000
 13 C      6.3486     6.0000    -0.3486     3.8284     3.8284    -0.0000
 14 H      0.8883     1.0000     0.1117     0.9542     0.9542     0.0000
 15 H      0.8874     1.0000     0.1126     0.9536     0.9536    -0.0000
 16 H      0.8870     1.0000     0.1130     0.9436     0.9436     0.0000
 17 H      0.8744     1.0000     0.1256     0.9524     0.9524     0.0000
 18 H      0.8853     1.0000     0.1147     0.9567     0.9567    -0.0000
 19 O      8.6435     8.0000    -0.6435     1.8257     1.8257     0.0000
 20 H      0.6303     1.0000     0.3697     0.8737     0.8737     0.0000
 21 O      8.5947     8.0000    -0.5947     1.8793     1.8793    -0.0000

  Mayer bond orders larger than 0.100000
B(  0-C ,  1-C ) :   0.8965 B(  0-C ,  4-C ) :   0.9598 B(  0-C ,  5-H ) :   0.9609 
B(  0-C ,  7-N ) :   0.9770 B(  1-C , 19-O ) :   0.9557 B(  1-C , 21-O ) :   1.8082 
B(  2-H ,  7-N ) :   0.9073 B(  3-H ,  7-N ) :   0.8986 B(  4-C ,  8-C ) :   0.9701 
B(  4-C ,  9-H ) :   0.9679 B(  4-C , 10-H ) :   0.9565 B(  6-H , 13-C ) :   0.9766 
B(  8-C , 11-C ) :   0.9826 B(  8-C , 13-C ) :   0.9695 B(  8-C , 16-H ) :   0.9718 
B( 11-C , 12-H ) :   0.9719 B( 11-C , 14-H ) :   0.9766 B( 11-C , 15-H ) :   0.9764 
B( 13-C , 17-H ) :   0.9680 B( 13-C , 18-H ) :   0.9707 B( 19-O , 20-H ) :   0.8416 


-------
TIMINGS
-------

Total SCF time: 0 days 0 hours 0 min 18 sec 

Total time                  ....      18.123 sec
Sum of individual times     ....      16.833 sec  ( 92.9%)

SCF preparation             ....       0.016 sec  (  0.1%)
Fock matrix formation       ....      16.765 sec  ( 92.5%)
  Startup                   ....       0.001 sec  (  0.0% of F)
  Coulomb+Exchange Fock     ....      18.048 sec  (107.6% of F)
Diagonalization             ....       0.000 sec  (  0.0%)
Density matrix formation    ....       0.004 sec  (  0.0%)
Total Energy calculation    ....       0.001 sec  (  0.0%)
Population analysis         ....       0.003 sec  (  0.0%)
Orbital Transformation      ....       0.006 sec  (  0.0%)
Orbital Orthonormalization  ....       0.000 sec  (  0.0%)
DIIS solution               ....       0.026 sec  (  0.1%)
SOSCF solution              ....       0.011 sec  (  0.1%)
Finished LeanSCF after  18.1 sec

Maximum memory used throughout the entire LEANSCF-calculation: 15.2 MB

------------------------------------------------------------------------------
                                ORCA  MP2 
------------------------------------------------------------------------------

Freezing NCore=18 chemical core electrons

----------
MP2 ENERGY (disk based algorithm)
----------

Dimension of the basis                      ...  191
Memory devoted to MP2                       ... 4096 MB   
Data format for buffers                     ... DOUBLE
Compression type for matrix containers      ... UNCOMPRESSED

-------------------------
SHARK HALF TRANSFORMATION (Exchange order)
-------------------------

Number of basis functions                   ...    191
Number of operators                         ...      1
   Operator  0:    9-  35 (p-index in (p*|q*))
   Operator  0:    9-  35 (q-index in (p*|q*)
Integral generator used                     ... SHARK
Contraction scheme used                     ... SEGMENTED CONTRACTION
MaxCore in resort                           ...   4096 MB

Half transformed integrals for op=   0      ... 5.SHARK_MNPQ0.tmp
Resorted half transformed integrals         ... 5.KAO_aa.tmp

Half trafo (segmented) done. Total time = 11.9 sec. integrals= 10.8 sec trafo=  1.1 sec

----------------------
SHARK INTEGRAL SORTING (Exchange)
----------------------

Input container                             ... 5.SHARK_MNPQ0.tmp
Output container                            ... 5.KAO_aa.tmp
Range of AO-indices                         ...    0 -  190
Range of bra indices i                      ...    9 -   35
Range of ket indices j                      ...    9 -   35
Symmetric i,j range                         ... YES
Number of (i,j) pairs generated             ...  378
Max Core memory in MB                       ...   4096

Available core memory in MB                 ...   4086.14
MB needed for one item                      ...      0.28
Fixed MB needed                             ...      0.00
Number of items                             ...       378
Number of batches                           ...         1
Items treated per batch                     ...       378
Batch   0                                   ...      0-   377 (   378)
   => Closing output file and leaving
done (  0.1 sec)

SHARK half integral transformation done. Total time = 12.0 sec.


Finished integral transformation - now doing MP2 part

OPERATOR COMBINATION   0   0: ij=(  9.. 35,  9.. 35)
  Internal MO  11
  Internal MO  14
  Internal MO  17
  Internal MO  20
  Internal MO  23
  Internal MO  26
  Internal MO  29
  Internal MO  32
  Internal MO  35
-----------------------------------------------
 MP2 CORRELATION ENERGY   :     -1.370019463 Eh
-----------------------------------------------


-------
TIMINGS
-------
Total time                :   12.202 sec
Integral trafo            :   12.049 sec ( 98.7%)
K(i,j)                    :    0.128 sec (  1.0%)
T(i,j)                    :    0.004 sec (  0.0%)

---------------------------------------
MP2 TOTAL ENERGY:     -440.361035927 Eh
---------------------------------------

Maximum memory used throughout the entire MP2-calculation: 116.1 MB

-------------------------   --------------------
FINAL SINGLE POINT ENERGY      -440.361035927314
-------------------------   --------------------


------------------------------------------------------------------------------
                              ORCA PROPERTY CALCULATIONS
------------------------------------------------------------------------------

GBWName                                 ... 5.gbw
Number of atoms                         ...     22
Number of basis functions               ...    191
Max core memory                         ...   4096 MB

Electric properties:
Dipole moment                           ... YES
Quadrupole moment                       ...  NO
Static polarizability (Dipole/Dipole)   ...  NO
Static polarizability (Dipole/Quad.)    ...  NO
Static polarizability (Quad./Quad.)     ...  NO
Static polarizability (Velocity)        ...  NO
Static hyperpolarizability              ...  NO

Atomic electric properties:
Dipole moment                           ...  NO
Quadrupole moment                       ...  NO
Static polarizability                   ...  NO

Choice of electric origin               ... Center of mass
Position of electric origin             ...   -17.652958    10.660213    -3.170686

General magnetic properties:
Magnetizability                         ...  NO

EPR properties:
g-Tensor (aka g-matrix)                 ...  NO
Zero-Field splitting spin-orbit         ...  NO
Zero-field splitting spin-spin          ...  NO
Hyperfine couplings                     ...  NO (   0 nuclei)
Quadrupole couplings                    ...  NO (   0 nuclei)
Contact density                         ...  NO (   0 nuclei)

NMR properties:
Chemical shifts                         ...  NO (   0 nuclei)
Spin-rotation constants                 ...  NO (   0 nuclei)
Spin-spin couplings                     ...  NO (   0 nuclei,    0 pairs)

Choice of magnetic origin               ... GIAO
Position of magnetic origin             ...     0.000000     0.000000     0.000000

Properties with geometric perturbations:
SCF Hessian                             ...  NO
IR spectrum                             ...  NO
VCD spectrum                            ...  NO
X-ray spectroscopy properties:
SCF XES/XAS/RIXS spectra                ...  NO

SCF SOC stabilization energy            ...  NO
Diagonal Born-Oppenheimer correction    ...  NO

-------------
DIPOLE MOMENT
-------------

Method             : SCF
Type of density    : Electron Density
Multiplicity       :   1
Irrep              :   0
Energy             :  -438.9910164638279753 Eh
Basis              : AO
                                X                 Y                 Z
Electronic contribution:      3.399391088       9.981559534       3.761107535
Nuclear contribution   :     -3.765696264      -9.741427201      -3.411827025
                        -----------------------------------------
Total Dipole Moment    :     -0.366305176       0.240132333       0.349280511
                        -----------------------------------------
Magnitude (a.u.)       :      0.560214151
Magnitude (Debye)      :      1.423951208



--------------------
Rotational spectrum 
--------------------
 
Rotational constants in cm-1:             0.079115             0.035595             0.029327 
Rotational constants in MHz :          2371.793330          1067.099854           879.204615 

Dipole components along the rotational axes: 
x,y,z [a.u.] :    -0.213355     0.283147    -0.433759 
x,y,z [Debye]:    -0.542305     0.719703    -1.102529 

 

Dipole moment calculation done in   0.0 sec 

Maximum memory used throughout the entire PROP-calculation: 10.0 MB

--------------------------------
SUGGESTED CITATIONS FOR THIS RUN
--------------------------------

Below you find a list of papers that are relevant to this ORCA run
We neither can nor want to force you to cite these papers, but we appreciate if you do
You receive ORCA, which is the product of decades of hard work by many enthusiastic individuals, for free
The only thing we kindly ask in return is that you cite our papers,
We deeply appreciate it, if you show your appreciation for ORCA by not just citing the generic ORCA reference.

Please note that relegating all ORCA citations to the supporting information does *not* help us.
SI sections are not indexed - citations you put there will not count into any citation statistics
But we need these citations in order to attract the funding resources that allow us to do what we are doing

Therefore, if you are a happy ORCA user, please consider citing a few of the papers listed below in the main body of your paper

In addition to the list printed below, the program has created the file 5.bibtex that contains the list in bibtex format
You can import this file easily into all common literature databanks and citation aid programs


List of essential papers. We consider these as the minimum necessary citations

  1. Neese, F.
     Software update: the ORCA program system, version 6.0
     WIRES Comput. Molec. Sci. 2025 15(1), e70019
     doi.org/10.1002/wcms.7019

List of papers to cite with high priority. The work reported in these papers was absolutely
necessary for this run to complete.
Our perspective: the developers of density functionals and basis sets usually get cited in chemistry papers
Good! But without the algorithms to do something with them, the functionals or basis sets would not do anything.
Hence, in our opinion, the algorithm design and method developments papers are equally worthy of getting cited

  1. Neese, F.
     The SHARK Integral Generation and Digestion System
     J. Comp. Chem. 2022 44(3), 381
     doi.org/10.1002/jcc.26942

List of suggested additional citations. These are papers that are important in the 'surrounding' of 
of this run, or papers that preceded the highly important papers. If you like your results we are grateful for a citation.

  1. Neese, F.
     The ORCA program system
     WIRES Comput. Molec. Sci. 2012 2(1), 73-78
     doi.org/10.1002/wcms.81
  2. Neese, F.
     Software update: the ORCA program system, version 4.0
     WIRES Comput. Molec. Sci. 2018 8(1), 1-6
     doi.org/10.1002/wcms.1327
  3. Neese, F.; Wennmohs, F.; Becker, U.; Riplinger, C.
     The ORCA quantum chemistry program package
     J. Chem. Phys. 2020 152(22), 224108
     doi.org/10.1063/5.0004608
  4. Neese, F.
     Software update: The ORCA program system—Version 5.0
     WIRES Comput. Molec. Sci. 2022 12(1), e1606
     doi.org/10.1002/wcms.1606

List of optional additional citations

  1. Neese, F.
     Approximate second-order SCF convergence for spin unrestricted wavefunctions
     Chem. Phys. Lett. 2000 325(1-3), 93-98
     doi.org/10.1016/s0009-2614(00)00662-x

Timings for individual modules:

Sum of individual times          ...       31.079 sec (=   0.518 min)
Startup calculation              ...        0.442 sec (=   0.007 min)   1.4 %
SCF iterations                   ...       18.386 sec (=   0.306 min)  59.2 %
Property calculations            ...        0.024 sec (=   0.000 min)   0.1 %
MP2 module                       ...       12.227 sec (=   0.204 min)  39.3 %
                             ****ORCA TERMINATED NORMALLY****
TOTAL RUN TIME: 0 days 0 hours 0 minutes 31 seconds 116 msec
