
                                 *****************
                                 * O   R   C   A *
                                 *****************

                                            #,                                       
                                            ###                                      
                                            ####                                     
                                            #####                                    
                                            ######                                   
                                           ########,                                 
                                     ,,################,,,,,                         
                               ,,#################################,,                 
                          ,,##########################################,,             
                       ,#########################################, ''#####,          
                    ,#############################################,,   '####,        
                  ,##################################################,,,,####,       
                ,###########''''           ''''###############################       
              ,#####''   ,,,,##########,,,,          '''####'''          '####       
            ,##' ,,,,###########################,,,                        '##       
           ' ,,###''''                  '''############,,,                           
         ,,##''                                '''############,,,,        ,,,,,,###''
      ,#''                                            '''#######################'''  
     '                                                          ''''####''''         
             ,#######,   #######,   ,#######,      ##                                
            ,#'     '#,  ##    ##  ,#'     '#,    #''#        ,####,    ,#,          
            ##       ##  ##   ,#'  ##            #'  '#       #'       ,# #          
            ##       ##  #######   ##           ,######,      #####,      #          
            '#,     ,#'  ##    ##  '#,     ,#' ,#      #,     #,   #      #          
             '#######'   ##     ##  '#######'  #'      '#     '####' #    #          



                #########################################################
                #                        -***-                          #
                #          Department of theory and spectroscopy        #
                #                                                       #
                #                      Frank Neese                      #
                #                                                       #
                #     Directorship, Architecture, Infrastructure        #
                #                    SHARK, DRIVERS                     #
                #        Core code/Algorithms in most modules           #
                #                                                       #
                #        Max Planck Institute fuer Kohlenforschung      #
                #                Kaiser Wilhelm Platz 1                 #
                #                 D-45470 Muelheim/Ruhr                 #
                #                      Germany                          #
                #                                                       #
                #                  All rights reserved                  #
                #                        -***-                          #
                #########################################################


                         Program Version 6.1.0  -  RELEASE   -
                                (GIT: $679e74b$)
                          ($2025-06-10 18:02:51 +0200$)


 With contributions from (in alphabetic order):
[Max-Planck-Institut fuer Kohlenforschung]                               
  Daniel Aravena         : Magnetic Suceptibility                        
  Michael Atanasov       : Ab Initio Ligand Field Theory (pilot matlab implementation)
  Alexander A. Auer      : GIAO ZORA, VPT2 properties, NMR spectrum      
  Ute Becker             : All parallelization in ORCA, NUMFREQ, NUMCALC 
  Giovanni Bistoni       : ED, misc. LED, open-shell LED, HFLD           
  Dmytro Bykov           : pre 5.0 version of the SCF Hessian            
  Marcos Casanova-Páez   : Triplet and SCS-CIS(D). UHF-(DLPNO)-IP/EA/STEOM-CCSD. UHF-CVS-IP/STEOM-CCSD   
  Vijay G. Chilkuri      : MRCI spin determinant printing, contributions to CSF-ICE 
  Pauline Colinet        : FMM embedding                                 
  Dipayan Datta          : RHF DLPNO-CCSD density                        
  Achintya Kumar Dutta   : EOM-CC, STEOM-CC                              
  Nicolas Foglia         : Exact transition moments, OPA infrastructure, MCD improvements    
  Dmitry Ganyushin       : Spin-Orbit,Spin-Spin,Magnetic field MRCI      
  Miquel Garcia-Rates    : C-PCM and meta-GGA Hessian, CCSD/C-PCM, Gaussian charge scheme 
  Tiago L. C. Gouveia    : GS-ROHF, GS-ROCIS                             
  Yang Guo               : DLPNO-NEVPT2, F12-NEVPT2, CIM, IAO-localization        
  Andreas Hansen         : Spin unrestricted coupled pair/coupled cluster methods 
  Ingolf Harden          : AUTO-CI MPn and infrastructure                
  Benjamin Helmich-Paris : MC-RPA, TRAH-(SCF,CASSCF), AVAS, COSX integrals, SCF dyn. polar., MC-PDFT, srDFT 
  Lee Huntington         : MR-EOM, pCC                                   
  Robert Izsak           : Overlap fitted RIJCOSX, COSX-SCS-MP3, EOM     
  Riya Kayal             : Wick's Theorem for AUTO-CI, AUTO-CI UHF-CCSDT 
  Emily Kempfer          : AUTO-CI RHF CISDT and CCSDT, approximate NEVPT4
  Christian Kollmar      : KDIIS, OOCD, Brueckner-CCSD(T), CCSD density, CASPT2, CASPT2-K, improved NEVPT2 
  Axel Koslowski         : Symmetry handling                             
  Simone Kossmann        : meta-GGA functionals, TD-DFT gradient, OOMP2, (MP2 Hessian; deprecated post 5.0) 
  Lucas Lang             : DCDCAS, Hyperfine gauge corrections, ICE-SOC+SSC
  Marvin Lechner         : AUTO-CI (C++ implementation), FIC-MRCC        
  Spencer Leger          : CASSCF response                               
  Dagmar Lenk            : GEPOL surface, SMD, ORCA-2-JSON               
  Dimitrios Liakos       : Extrapolation schemes; Compound Job, Property file
  Dimitrios Manganas     : Further ROCIS development; embedding schemes. LFT, Crystal Embedding 
  Dimitrios Pantazis     : SARC Basis sets                               
  Anastasios Papadopoulos: AUTO-CI, single reference methods and gradients 
  Taras Petrenko         : pre 6.0 DFT Hessian and TD-DFT gradient,  ECA, NRVS 
  Petra Pikulova         : Analytic Raman intensities                    
  Peter Pinski           : DLPNO-MP2, DLPNO-MP2 Gradient                 
  Shashank Vittal Rao    : ES-AILFT, MagRelax                            
  Christoph Reimann      : Effective Core Potentials                     
  Marius Retegan         : Local ZFS, SOC                                
  Christoph Riplinger    : Optimizer, TS searches, QM/MM, DLPNO-CCSD(T), (RO)-DLPNO pert. Triples 
  Michael Roemelt        : Original ROCIS implementation, recursive CI coupling coefficients
  Masaaki Saitow         : Open-shell DLPNO-CCSD energy and density      
  Barbara Sandhoefer     : DKH picture change effects                    
  Yorick L. A. Schmerwitz: GMF and freeze-and-release deltaSCF, NEB S-IDPP initial path                    
  Kantharuban Sivalingam : CASSCF convergence/infrastructure, NEVPT2, NEVPT3, NEVPT4(SD), FIC-MRCI and CEPA variants
  Bernardo de Souza      : ESD, SOC TD-DFT                               
  Georgi L. Stoychev     : AutoAux, RI-MP2 NMR, DLPNO-MP2 response, X2C  
  Van Anh Tran           : RI-MP2 g-tensors                              
  Willem Van den Heuvel  : Paramagnetic NMR                              
  Zikuan Wang            : NOTCH, Electric field optimization            
  Frank Wennmohs         : Technical directorship and infrastructure     
  Hang Xu                : AUTO-CI-Response properties                   
                                                                         
[FACCTs GmbH]                                                            
  Markus Bursch, Nicolas Foglia, Miquel Garcia-Rates, Ingolf Harden, Hagen Neugebauer, Anastasios Papadopoulos, 
  Christoph Riplinger, Bernardo de Souza, Georgi L. Stoychev                                                    
                                                                 
  APM, various basis sets, CI-OPT, improved COSX, DLPNO-Multilevel,           
  DOCKER, DRACO, updates on ESD, Fragmentator, GOAT, IRC, LR-CPCM, L-BFGS, MBIS, meta-GGA TD-DFT gradient, ML-optimized integration grids, 
  MM, NACMEs, nearIR, NEB, NEB-TS, NL-DFT gradient (VV10), 2- and 3-layer-ONIOM, interface openCOSMO-RS, QMMM,   
  Crystal-QMMM, RESP, rigid body optimization, SF, symmetry and pop. for TD-DFT, various functionals, SOLVATOR                                   
                                                                         
[Other institutions]                                                     
  V. Asgeirsson          : NEB                                           
  Christoph Bannwarth    : sTDA-DFT, sTD-DFT, PBEh-3c, B97-3c, D3        
  Giovanni Bistoni       : ETS/NOCV, ADLD/ADEX, COVALED                  
  Martin Brehm           : Molecular dynamics                            
  Ronald Cardenas        : ETS/NOCV                                      
  Martina Colucci        : COVALED                                       
  Sebastian Ehlert       : rSCAN, r2SCAN, r2SCAN-3c, D4, dhf basis sets  
  Marvin Friede          : D4 for Fr, Ra, Ac-Lr                          
  Lars Goerigk           : TD-DFT with DH, B97 family of functionals     
  Stefan Grimme          : VdW corrections, initial TS optimization, DFT functionals, gCP, sTDA/sTD-DF 
  Waldemar Hujo          : DFT-NL                                        
  H. Jonsson             : NEB                                           
  Holger Kruse           : gCP                                           
  Marcel Mueller         : wB97X-3c, vDZP basis set                      
  Hagen Neugebauer       : wr2SCAN, Native XTB                           
  Gianluca Regni         : ADLD/ADEX                                     
  Tobias Risthaus        : pre 6.0 range-separated hybrid DFT and stability analysis
  Lukas Wittmann         : regularized MP2, r2SCAN double-hybrids, wr2SCAN        
                                                                         
We gratefully acknowledge several colleagues who have allowed us to      
interface, adapt or use parts of their codes:                            
  Ed Valeev, F. Pavosevic, A. Kumar             : LibInt (2-el integral package), F12 methods 
  Garnet Chan, S. Sharma, J. Yang, R. Olivares  : DMRG                   
  Ulf Ekstrom                                   : XCFun DFT Library      
  Mihaly Kallay                                 : mrcc  (arbitrary order and MRCC methods)
  Frank Weinhold                                : gennbo (NPA and NBO analysis)           
  Simon Mueller                                 : openCOSMO-RS                            
  Christopher J. Cramer and Donald G. Truhlar   : smd solvation model                     
  S Lehtola, MJT Oliveira, MAL Marques          : LibXC Library                           
  Liviu Ungur et al                             : ANISO software                          


 Your calculation uses the libint2 library for the computation of 2-el integrals
 For citations please refer to: http://libint.valeyev.net

 Your ORCA version has been built with support for libXC version: 7.0.0
 For citations please refer to: https://libxc.gitlab.io

 This ORCA versions uses:
   CBLAS   interface :  Fast vector & matrix operations
   LAPACKE interface :  Fast linear algebra routines
   SCALAPACK package :  Parallel linear algebra routines
   Shared memory     :  Shared parallel matrices
   BLAS/LAPACK       :  OpenBLAS 0.3.29  USE64BITINT DYNAMIC_ARCH NO_AFFINITY Haswell SINGLE_THREADED
        Core in use  :  Haswell
   Copyright (c) 2011-2014, The OpenBLAS Project


  ***********************************
  * Starting time: Sat Aug 30 15:54:44 2025
  * Host name:     chemlab03
  * Process ID:    80905
  * Working dir.:  /home/vivek/mm-project/vivek/xtb-goat/B97-D-opt/h/1
  ***********************************



***************************************
The coordinates will be read from file: /home/vivek/mm-project/vivek/xtb-goat/xtb-goat/h/H_CONF/1.xyz
***************************************


Your calculation utilizes empirical dispersion correction


Warning: RI is on but no J-basis has been assigned. Assigning Def2/J (nothing to worry about!)
================================================================================

----- Orbital basis set information -----
Your calculation utilizes the basis: 6-31G**
   H-He, Li-Ne : W. J. Hehre, R. Ditchfield and J.A. Pople, J. Chem. Phys. 56, 2257 (1972).
                 Note: He and Ne are unpublished basis sets taken from the Gaussian program.
                 Note: Li and B from J. D. Dill and J. A. Pople, J. Chem. Phys. 62, 2921 (1975).
   Na - Ar     : M. M. Francl, W. J. Pietro, W. J. Hehre, J. S. Binkley, M. S. Gordon, 
                 D. J. DeFrees and J. A. Pople, J. Chem. Phys. 77, 3654 (1982).
   K - Zn      : V. A. Rassolov, J. A. Pople, M. A. Ratner, and T. L. Windus, J. Chem. Phys. 109, 1223 (1998).

----- AuxJ basis set information -----
Your calculation utilizes the auxiliary basis: def2/J
   H-Rn: F. Weigend, Phys. Chem. Chem. Phys. 8, 1057 (2006).
   Fr-Lr: K. Eichkorn, F. Weigend, O. Treutler, R. Ahlrichs; Theor. Chem. Acc. 97, 119 (1997).

================================================================================
                                        WARNINGS
                       Please study these warnings very carefully!
================================================================================


WARNING: Geometry Optimization
  ===> : Switching off AutoStart
         For restart on a previous wavefunction, please use MOREAD

INFO   : The exchange functional is Grimme's B97(-D)
         As described in S. Grimme, J. Comput. Chem. 27, 1787 (2006).
         Note that this functional defaults to a pure GGA. 

INFO   : The correlation functional is Grimme's B97(-D)
         As described in S. Grimme, J. Comput. Chem. 27, 1787 (2006).

================================================================================
                                       INPUT FILE
================================================================================
NAME = 1.inp
|  1> ! B97-D 6-31G** opt
|  2> 
|  3> * xyzfile 0 1 /home/vivek/mm-project/vivek/xtb-goat/xtb-goat/h/H_CONF/1.xyz
|  4> 
|  5>                          ****END OF INPUT****
================================================================================

                       *****************************
                       * Geometry Optimization Run *
                       *****************************

Geometry optimization settings:
Update method            Update   .... BFGS
Choice of coordinates    CoordSys .... (2022) Redundant Internals
Initial Hessian          InHess   .... Almloef's Model
Max. no of cycles        MaxIter  .... 72

Convergence Tolerances:
Energy Change            TolE     ....  5.0000e-06 Eh
Max. Gradient            TolMAXG  ....  3.0000e-04 Eh/bohr
RMS Gradient             TolRMSG  ....  1.0000e-04 Eh/bohr
Max. Displacement        TolMAXD  ....  4.0000e-03 bohr
RMS Displacement         TolRMSD  ....  2.0000e-03 bohr
Strict Convergence                .... False

------------------------------------------------------------------------------
                        ORCA OPTIMIZATION COORDINATE SETUP
------------------------------------------------------------------------------

The optimization will be done in redundant internal coordinates (2022)
Making redundant internal coordinates   ...  (2022 redundants) done
Evaluating the initial hessian          ...  (Almloef) done
Evaluating the coordinates              ...  done
Calculating the B-matrix                .... done
Calculating the G-matrix                .... done
The number of degrees of freedom        ....  117

    -----------------------------------------------------------------
                    Redundant Internal Coordinates


    -----------------------------------------------------------------
         Definition                    Initial Value    Approx d2E/dq
    -----------------------------------------------------------------
      1. B(N   1,C   0)                  1.4711         0.415440   
      2. B(C   3,N   1)                  1.4638         0.426750   
      3. B(N   4,C   0)                  1.4431         0.460505   
      4. B(N   4,H   2)                  1.0155         0.424008   
      5. B(H   5,C   0)                  1.0942         0.354576   
      6. B(H   6,C   0)                  1.0984         0.349106   
      7. B(C   7,C   3)                  1.5438         0.355121   
      8. B(C   7,N   4)                  1.4533         0.443439   
      9. B(H   8,N   1)                  1.0115         0.430350   
     10. B(H   9,C   7)                  1.0876         0.363238   
     11. B(H  10,C   7)                  1.0947         0.353894   
     12. B(C  11,C   3)                  1.5338         0.368428   
     13. B(H  12,C   3)                  1.0930         0.356129   
     14. B(C  13,C  11)                  1.5270         0.377676   
     15. B(H  14,C  11)                  1.0920         0.357471   
     16. B(H  15,C  11)                  1.0883         0.362417   
     17. B(C  16,C  13)                  1.5343         0.367687   
     18. B(N  18,H  17)                  1.0165         0.422450   
     19. B(N  18,C  13)                  1.4535         0.443109   
     20. B(H  19,N  18)                  1.0148         0.425072   
     21. B(O  20,C  16)                  1.3623         0.619428   
     22. B(H  21,C  13)                  1.0938         0.355094   
     23. B(H  22,O  20)                  0.9685         0.503964   
     24. B(O  23,C  16)                  1.2153         1.063243   
     25. A(N   4,C   0,H   6)          109.2469         0.331988   
     26. A(N   1,C   0,N   4)          106.9484         0.378825   
     27. A(N   1,C   0,H   5)          109.5317         0.327226   
     28. A(N   4,C   0,H   5)          110.6527         0.332844   
     29. A(H   5,C   0,H   6)          109.6426         0.288728   
     30. A(N   1,C   0,H   6)          110.7891         0.326390   
     31. A(C   3,N   1,H   8)          114.2743         0.336501   
     32. A(C   0,N   1,H   8)          113.3668         0.335001   
     33. A(C   0,N   1,C   3)          108.1459         0.373874   
     34. A(C  11,C   3,H  12)          110.1248         0.322993   
     35. A(N   1,C   3,H  12)          111.0830         0.328916   
     36. A(C   7,C   3,C  11)          112.1539         0.359373   
     37. A(N   1,C   3,C   7)          102.8590         0.366217   
     38. A(N   1,C   3,C  11)          107.6998         0.368535   
     39. A(C   7,C   3,H  12)          112.6191         0.321053   
     40. A(C   0,N   4,H   2)          108.8492         0.339958   
     41. A(H   2,N   4,C   7)          109.5341         0.337822   
     42. A(C   0,N   4,C   7)          104.0537         0.383135   
     43. A(C   3,C   7,H   9)          113.2516         0.322093   
     44. A(C   3,C   7,N   4)          104.2733         0.368635   
     45. A(N   4,C   7,H  10)          108.1539         0.330664   
     46. A(C   3,C   7,H  10)          110.2469         0.320722   
     47. A(N   4,C   7,H   9)          111.5886         0.332093   
     48. A(H   9,C   7,H  10)          109.1487         0.290442   
     49. A(H  14,C  11,H  15)          108.6402         0.290798   
     50. A(C  13,C  11,H  15)          110.6413         0.325244   
     51. A(C   3,C  11,H  15)          111.5531         0.323922   
     52. A(C  13,C  11,H  14)          107.6276         0.324510   
     53. A(C   3,C  11,H  14)          110.0738         0.323192   
     54. A(C   3,C  11,C  13)          108.2294         0.363168   
     55. A(C  11,C  13,C  16)          108.1061         0.363043   
     56. A(N  18,C  13,H  21)          108.5641         0.330808   
     57. A(C  16,C  13,H  21)          108.5554         0.322732   
     58. A(C  11,C  13,H  21)          110.7219         0.324155   
     59. A(C  16,C  13,N  18)          110.6232         0.370797   
     60. A(C  11,C  13,N  18)          110.2592         0.372512   
     61. A(O  20,C  16,O  23)          121.1107         0.472400   
     62. A(C  13,C  16,O  23)          123.8853         0.432536   
     63. A(C  13,C  16,O  20)          111.5476         0.392993   
     64. A(H  17,N  18,H  19)          107.4031         0.301240   
     65. A(C  13,N  18,H  19)          109.9902         0.337921   
     66. A(C  13,N  18,H  17)          108.9895         0.337573   
     67. A(C  16,O  20,H  22)          108.9298         0.368077   
     68. D(C   3,N   1,C   0,H   5)    132.4080         0.014719   
     69. D(H   8,N   1,C   0,N   4)    140.2494         0.014719   
     70. D(C   3,N   1,C   0,N   4)     12.4519         0.014719   
     71. D(H   8,N   1,C   0,H   5)    -99.7946         0.014719   
     72. D(C   3,N   1,C   0,H   6)   -106.5148         0.014719   
     73. D(C  11,C   3,N   1,H   8)    124.5139         0.015527   
     74. D(H  12,C   3,N   1,C   0)    131.1188         0.015527   
     75. D(C   7,C   3,N   1,C   0)     10.4014         0.015527   
     76. D(C  11,C   3,N   1,C   0)   -108.2101         0.015527   
     77. D(C   7,C   3,N   1,H   8)   -116.8747         0.015527   
     78. D(C   7,N   4,C   0,N   1)    -31.4253         0.018103   
     79. D(H   2,N   4,C   0,H   5)    -33.9367         0.018103   
     80. D(H   2,N   4,C   0,N   1)     85.2974         0.018103   
     81. D(C   7,N   4,C   0,H   5)   -150.6594         0.018103   
     82. D(H   2,N   4,C   0,H   6)   -154.7413         0.018103   
     83. D(H  10,C   7,N   4,C   0)    -79.7988         0.016769   
     84. D(H   9,C   7,N   4,H   2)     43.8912         0.016769   
     85. D(H   9,C   7,N   4,C   0)    160.1354         0.016769   
     86. D(C   3,C   7,N   4,C   0)     37.5375         0.016769   
     87. D(H   9,C   7,C   3,H  12)     89.3615         0.010138   
     88. D(H   9,C   7,C   3,C  11)    -35.5345         0.010138   
     89. D(C   3,C   7,N   4,H   2)    -78.7068         0.016769   
     90. D(N   4,C   7,C   3,H  12)   -149.1365         0.010138   
     91. D(N   4,C   7,C   3,C  11)     85.9675         0.010138   
     92. D(N   4,C   7,C   3,N   1)    -29.4780         0.010138   
     93. D(H   9,C   7,C   3,N   1)   -150.9800         0.010138   
     94. D(H  14,C  11,C   3,N   1)     81.4317         0.010857   
     95. D(C  13,C  11,C   3,H  12)     85.3283         0.010857   
     96. D(C  13,C  11,C   3,C   7)   -148.4111         0.010857   
     97. D(H  14,C  11,C   3,C   7)    -31.0364         0.010857   
     98. D(C  13,C  11,C   3,N   1)    -35.9430         0.010857   
     99. D(H  14,C  11,C   3,H  12)   -157.2970         0.010857   
    100. D(N  18,C  13,C  11,H  15)    -61.4446         0.011376   
    101. D(N  18,C  13,C  11,H  14)     57.1150         0.011376   
    102. D(N  18,C  13,C  11,C   3)    176.0504         0.011376   
    103. D(C  16,C  13,C  11,H  15)    177.5117         0.011376   
    104. D(C  16,C  13,C  11,H  14)    -63.9287         0.011376   
    105. D(C  16,C  13,C  11,C   3)     55.0067         0.011376   
    106. D(O  23,C  16,C  13,N  18)    -56.6027         0.010133   
    107. D(O  23,C  16,C  13,C  11)     64.2145         0.010133   
    108. D(O  20,C  16,C  13,H  21)    -16.4984         0.010133   
    109. D(O  20,C  16,C  13,N  18)    102.5234         0.010133   
    110. D(O  20,C  16,C  13,C  11)   -136.6594         0.010133   
    111. D(H  19,N  18,C  13,C  16)    -62.8982         0.016744   
    112. D(H  19,N  18,C  13,C  11)    177.5731         0.016744   
    113. D(H  17,N  18,C  13,H  21)    173.6196         0.016744   
    114. D(H  17,N  18,C  13,C  16)     54.6031         0.016744   
    115. D(H  17,N  18,C  13,C  11)    -64.9257         0.016744   
    116. D(H  22,O  20,C  16,O  23)     -9.4729         0.028147   
    117. D(H  22,O  20,C  16,C  13)   -169.2615         0.028147   
    -----------------------------------------------------------------

Number of atoms                         .... 24
Number of degrees of freedom            .... 117


         *************************************************************
         *                GEOMETRY OPTIMIZATION CYCLE   1            *
         *************************************************************
---------------------------------
CARTESIAN COORDINATES (ANGSTROEM)
---------------------------------
  C     -8.641213    2.125798    0.408079
  N     -7.246506    2.473568    0.721034
  H     -9.286940    3.751085   -0.592967
  C     -7.208303    3.877479    1.133598
  N     -9.378803    3.364317    0.341522
  H     -8.680944    1.600922   -0.551201
  H     -9.070517    1.490511    1.194641
  C     -8.702902    4.229228    1.294024
  H     -6.811062    1.836102    1.374588
  H     -8.919700    5.278301    1.105869
  H     -9.048373    3.965757    2.298847
  C     -6.543769    4.676981    0.005919
  H     -6.645739    3.999052    2.062808
  C     -5.445145    3.812869   -0.609019
  H     -7.271564    4.894363   -0.778627
  H     -6.133786    5.616941    0.370178
  C     -6.072778    2.482296   -1.044685
  H     -5.546613    4.595756   -2.475692
  N     -4.846732    4.493122   -1.745646
  H     -4.090796    3.933222   -2.126416
  O     -5.284107    1.423385   -0.708979
  H     -4.660867    3.604184    0.124317
  H     -5.624102    0.627891   -1.144402
  O     -6.921029    2.384242   -1.909415

----------------------------
CARTESIAN COORDINATES (A.U.)
----------------------------
  NO LB      ZA    FRAG     MASS         X           Y           Z
   0 C     6.0000    0    12.011  -16.329526    4.017176    0.771158
   1 N     7.0000    0    14.007  -13.693911    4.674365    1.362557
   2 H     1.0000    0     1.008  -17.549773    7.088524   -1.120546
   3 C     6.0000    0    12.011  -13.621719    7.327373    2.142189
   4 N     7.0000    0    14.007  -17.723370    6.357639    0.645383
   5 H     1.0000    0     1.008  -16.404607    3.025304   -1.041619
   6 H     1.0000    0     1.008  -17.140794    2.816658    2.257544
   7 C     6.0000    0    12.011  -16.446101    7.992083    2.445351
   8 H     1.0000    0     1.008  -12.871042    3.469730    2.597596
   9 H     1.0000    0     1.008  -16.855790    9.974543    2.089789
  10 H     1.0000    0     1.008  -17.098947    7.494194    4.344192
  11 C     6.0000    0    12.011  -12.365931    8.838212    0.011185
  12 H     1.0000    0     1.008  -12.558626    7.557112    3.898142
  13 C     6.0000    0    12.011  -10.289832    7.205278   -1.150879
  14 H     1.0000    0     1.008  -13.741264    9.249006   -1.471392
  15 H     1.0000    0     1.008  -11.591176   10.614481    0.699535
  16 C     6.0000    0    12.011  -11.475888    4.690860   -1.974169
  17 H     1.0000    0     1.008  -10.481579    8.684721   -4.678380
  18 N     7.0000    0    14.007   -9.158997    8.490770   -3.298792
  19 H     1.0000    0     1.008   -7.730484    7.432712   -4.018343
  20 O     8.0000    0    15.999   -9.985515    2.689807   -1.339776
  21 H     1.0000    0     1.008   -8.807763    6.810920    0.234925
  22 H     1.0000    0     1.008  -10.628013    1.186543   -2.162606
  23 O     8.0000    0    15.999  -13.078849    4.505565   -3.608271

--------------------------------
INTERNAL COORDINATES (ANGSTROEM)
--------------------------------
 C      0   0   0     0.000000000000     0.00000000     0.00000000
 N      1   0   0     1.471085572185     0.00000000     0.00000000
 H      1   2   0     2.015096905480   102.63957423     0.00000000
 C      2   1   3     1.463774162019   108.14594347    41.60431278
 N      3   1   2     1.015528869227    42.66546362   257.69448485
 H      1   2   3     1.094208429424   109.53174004    90.80368000
 H      1   2   3     1.098440281031   110.78906631   211.88089925
 C      5   3   1     1.453331905201   109.53405719   113.16511542
 H      2   1   3     1.011487199382   113.36680389   169.40176269
 H      8   5   3     1.087638139154   111.58859276    43.89118735
 H      8   5   3     1.094731885760   108.15391253   163.95697361
 C      4   2   1     1.533776009221   107.69978037   251.78993367
 H      4   2   1     1.093018766625   111.08296685   131.11881079
 C     12   4   2     1.527027559890   108.22940415   324.05701143
 H     12   4   2     1.091994767487   110.07384351    81.43167059
 H     12   4   2     1.088254298569   111.55310450   202.11003380
 C     14  12   4     1.534324504733   108.10606724    55.00668799
 H     14  12   4     2.026740634826    96.67814373   150.42385588
 N     18  14  12     1.016530567099    42.69910230   121.18171248
 H     19  18  14     1.014846649973   107.40305830   119.12647443
 O     17  14  12     1.362349064794   111.54755721   223.34064871
 H     14  12   4     1.093810899736   110.72185024   296.21352613
 H     21  17  14     0.968503763091   108.92979329   190.73851169
 O     17  14  12     1.215278346523   123.88531937    64.21453498

---------------------------
INTERNAL COORDINATES (A.U.)
---------------------------
 C      0   0   0     0.000000000000     0.00000000     0.00000000
 N      1   0   0     2.779948850993     0.00000000     0.00000000
 H      1   2   0     3.807981284670   102.63957423     0.00000000
 C      2   1   3     2.766132288126   108.14594347    41.60431278
 N      3   1   2     1.919071443930    42.66546362   257.69448485
 H      1   2   3     2.067754265039   109.53174004    90.80368000
 H      1   2   3     2.075751305615   110.78906631   211.88089925
 C      5   3   1     2.746399282520   109.53405719   113.16511542
 H      2   1   3     1.911433794799   113.36680389   169.40176269
 H      8   5   3     2.055338215809   111.58859276    43.89118735
 H      8   5   3     2.068743454158   108.15391253   163.95697361
 C      4   2   1     2.898416608206   107.69978037   251.78993367
 H      4   2   1     2.065506128157   111.08296685   131.11881079
 C     12   4   2     2.885663887142   108.22940415   324.05701143
 H     12   4   2     2.063571050226   110.07384351    81.43167059
 H     12   4   2     2.056502588358   111.55310450   202.11003380
 C     14  12   4     2.899453114510   108.10606724    55.00668799
 H     14  12   4     3.829984744312    96.67814373   150.42385588
 N     18  14  12     1.920964378577    42.69910230   121.18171248
 H     19  18  14     1.917782236376   107.40305830   119.12647443
 O     17  14  12     2.574466631265   111.54755721   223.34064871
 H     14  12   4     2.067003042798   110.72185024   296.21352613
 H     21  17  14     1.830206871914   108.92979329   190.73851169
 O     17  14  12     2.296543251413   123.88531937    64.21453498

---------------------
BASIS SET INFORMATION
---------------------
There are 4 groups of distinct atoms

 Group   1 Type C   : 10s4p1d contracted to 3s2p1d pattern {631/31/1}
 Group   2 Type N   : 10s4p1d contracted to 3s2p1d pattern {631/31/1}
 Group   3 Type H   : 4s1p contracted to 2s1p pattern {31/1}
 Group   4 Type O   : 10s4p1d contracted to 3s2p1d pattern {631/31/1}

Atom   0C    basis set group =>   1
Atom   1N    basis set group =>   2
Atom   2H    basis set group =>   3
Atom   3C    basis set group =>   1
Atom   4N    basis set group =>   2
Atom   5H    basis set group =>   3
Atom   6H    basis set group =>   3
Atom   7C    basis set group =>   1
Atom   8H    basis set group =>   3
Atom   9H    basis set group =>   3
Atom  10H    basis set group =>   3
Atom  11C    basis set group =>   1
Atom  12H    basis set group =>   3
Atom  13C    basis set group =>   1
Atom  14H    basis set group =>   3
Atom  15H    basis set group =>   3
Atom  16C    basis set group =>   1
Atom  17H    basis set group =>   3
Atom  18N    basis set group =>   2
Atom  19H    basis set group =>   3
Atom  20O    basis set group =>   4
Atom  21H    basis set group =>   3
Atom  22H    basis set group =>   3
Atom  23O    basis set group =>   4
---------------------------------
AUXILIARY/J BASIS SET INFORMATION
---------------------------------
There are 4 groups of distinct atoms

 Group   1 Type C   : 12s5p4d2f1g contracted to 6s4p3d1f1g pattern {711111/2111/211/2/1}
 Group   2 Type N   : 12s5p4d2f1g contracted to 6s4p3d1f1g pattern {711111/2111/211/2/1}
 Group   3 Type H   : 5s2p1d contracted to 3s1p1d pattern {311/2/1}
 Group   4 Type O   : 12s5p4d2f1g contracted to 6s4p3d1f1g pattern {711111/2111/211/2/1}

Atom   0C    basis set group =>   1
Atom   1N    basis set group =>   2
Atom   2H    basis set group =>   3
Atom   3C    basis set group =>   1
Atom   4N    basis set group =>   2
Atom   5H    basis set group =>   3
Atom   6H    basis set group =>   3
Atom   7C    basis set group =>   1
Atom   8H    basis set group =>   3
Atom   9H    basis set group =>   3
Atom  10H    basis set group =>   3
Atom  11C    basis set group =>   1
Atom  12H    basis set group =>   3
Atom  13C    basis set group =>   1
Atom  14H    basis set group =>   3
Atom  15H    basis set group =>   3
Atom  16C    basis set group =>   1
Atom  17H    basis set group =>   3
Atom  18N    basis set group =>   2
Atom  19H    basis set group =>   3
Atom  20O    basis set group =>   4
Atom  21H    basis set group =>   3
Atom  22H    basis set group =>   3
Atom  23O    basis set group =>   4
------------------------------------------------------------------------------
                             ORCA STARTUP CALCULATIONS
                           -- RI-GTO INTEGRALS CHOSEN --
------------------------------------------------------------------------------
------------------------------------------------------------------------------
                   ___                                                        
                  /   \      - P O W E R E D   B Y -                         
                 /     \                                                     
                 |  |  |   _    _      __       _____    __    __             
                 |  |  |  | |  | |    /  \     |  _  \  |  |  /  |          
                  \  \/   | |  | |   /    \    | | | |  |  | /  /          
                 / \  \   | |__| |  /  /\  \   | |_| |  |  |/  /          
                |  |  |   |  __  | /  /__\  \  |    /   |      \           
                |  |  |   | |  | | |   __   |  |    \   |  |\   \          
                \     /   | |  | | |  |  |  |  | |\  \  |  | \   \       
                 \___/    |_|  |_| |__|  |__|  |_| \__\ |__|  \__/        
                                                                              
                      - O R C A' S   B I G   F R I E N D -                    
                                      &                                       
                       - I N T E G R A L  F E E D E R -                       
                                                                              
 v1 FN, 2020, v2 2021, v3 2022-2024                                           
------------------------------------------------------------------------------


----------------------
SHARK INTEGRAL PACKAGE
----------------------

Number of atoms                             ...     24
Number of basis functions                   ...    219
Number of shells                            ...    105
Maximum angular momentum                    ...      2
Integral batch strategy                     ... SHARK/LIBINT Hybrid
RI-J (if used) integral strategy            ... SPLIT-RIJ (Revised 2003 algorithm where possible)
Printlevel                                  ...      1
Contraction scheme used                     ... SEGMENTED contraction
Prescreening option                         ... SCHWARTZ
   Thresh                                   ... 2.500e-11
   Tcut                                     ... 2.500e-12
   Tpresel                                  ... 2.500e-12 
Coulomb Range Separation                    ... NOT USED
Exchange Range Separation                   ... NOT USED
Multipole approximations                    ... NOT USED
Finite Nucleus Model                        ... NOT USED
CABS basis                                  ... NOT available
Auxiliary Coulomb fitting basis             ... AVAILABLE
   # of basis functions in Aux-J            ...    682
   # of shells in Aux-J                     ...    230
   Maximum angular momentum in Aux-J        ...      4
Auxiliary J/K fitting basis                 ... NOT available
Auxiliary Correlation fitting basis         ... NOT available
Auxiliary 'external' fitting basis          ... NOT available

Checking pre-screening integrals            ... done (  0.0 sec) Dimension = 105
   => SHARK Basis and OBASIS are compatible. Storing Pre-screening
Shell pair information
Shell pair cut-off parameter TPreSel        ...   2.5e-12
Total number of shell pairs                 ...      5565
Shell pairs after pre-screening             ...      5042
Total number of primitive shell pairs       ...     26835
Primitive shell pairs kept                  ...     15955
          la=0 lb=0:   1604 shell pairs
          la=1 lb=0:   1862 shell pairs
          la=1 lb=1:    567 shell pairs
          la=2 lb=0:    595 shell pairs
          la=2 lb=1:    352 shell pairs
          la=2 lb=2:     62 shell pairs

Checking whether 4 symmetric matrices of dimension 219 fit in memory
:Max Core in MB      =   4096.00
 MB in use           =     10.22
 MB left             =   4085.78
 MB needed           =      0.74
 Data fit in memory  = YES
Calculating RI/J V-Matrix + Cholesky decomp.... done (  0.0 sec)
Calculating Nuclear repulsion               ... done (  0.0 sec) ENN=    709.360025208653 Eh

Diagonalization of the overlap matrix:
Smallest eigenvalue                        ... 2.235e-03
Time for diagonalization                   ...    0.003 sec
Threshold for overlap eigenvalues          ... 1.000e-07
Number of eigenvalues below threshold      ... 0
Time for construction of square roots      ...    0.001 sec
Total time needed                          ...    0.004 sec

-------------------
DFT GRID GENERATION
-------------------

General Integration Accuracy     IntAcc      ... 4.388
Radial Grid Type                 RadialGrid  ... OptM3 with GC (2021)
Angular Grid (max. ang.)         AngularGrid ... 4 (Lebedev-302)
Angular grid pruning method      GridPruning ... 4 (adaptive)
Weight generation scheme         WeightScheme... mBecke (2022)
Basis function cutoff            BFCut       ... 1.0000e-11
Integration weight cutoff        WCut        ... 1.0000e-14
Partially contracted basis set               ... off
Rotationally invariant grid construction     ... off
Angular grids for H and He will be reduced by one unit

Total number of grid points                  ...   107170
Total number of batches                      ...     1687
Average number of points per batch           ...       63
Average number of grid points per atom       ...     4465
Grids setup in   0.5 sec
Initializing property integral containers    ... done (  0.0 sec)

SHARK setup successfully completed in   0.6 seconds

Maximum memory used throughout the entire STARTUP-calculation: 46.4 MB
-------------------------------------------------------------------------------
                                 ORCA GUESS
                   Start orbitals & Density for SCF / CASSCF
-------------------------------------------------------------------------------

------------
SCF SETTINGS
------------
Hamiltonian:
 Density Functional     Method          .... DFT(GTOs)
 Exchange Functional    Exchange        .... B97(D)
 Correlation Functional Correlation     .... B97(D)
 Gradients option       PostSCFGGA      .... off
 RI-approximation to the Coulomb term is turned on
   Number of AuxJ basis functions       .... 682


General Settings:
 Integral files         IntName         .... 1
 Hartree-Fock type      HFTyp           .... RHF
 Total Charge           Charge          ....    0
 Multiplicity           Mult            ....    1
 Number of Electrons    NEL             ....   86
 Basis Dimension        Dim             ....  219
 Nuclear Repulsion      ENuc            ....    709.3600252087 Eh

Convergence Acceleration:
 AO-DIIS                CNVDIIS         .... on
   Start iteration      DIISMaxIt       ....    12
   Startup error        DIISStart       ....  0.200000
   # of expansion vecs  DIISMaxEq       ....     5
   Bias factor          DIISBfac        ....   1.050
   Max. coefficient     DIISMaxC        ....  10.000
 MO-DIIS                CNVKDIIS        .... off
 Trust-Rad. Augm. Hess. CNVTRAH         .... auto
   Auto Start mean grad. ratio tolernc. ....  1.125000
   Auto Start start iteration           ....    50
   Auto Start num. interpolation iter.  ....    10
   Max. Number of Micro iterations      ....    24
   Max. Number of Macro iterations      .... Maxiter - #DIIS iter
   Number of Davidson start vectors     ....     2
   Converg. threshold    (grad. norm)   ....   1.000e-05
   Grad. Scal. Fac. for Micro threshold ....   0.100
   Minimum threshold for Micro iter.    ....   1.000e-02
   NR start threshold (gradient norm)   ....   1.000e-04
   Initial trust radius                 ....   0.400
   Minimum AH scaling param. (alpha)    ....   1.000
   Maximum AH scaling param. (alpha)    .... 1000.000
   Quad. conv. algorithm                .... NR
   White noise on init. David. guess    .... on
   Maximum white noise                  ....   0.010
   Pseudo random numbers                .... off
   Inactive MOs                         .... canonical
   Orbital update algorithm             .... Taylor
   Preconditioner                       .... Diag
   Full preconditioner red. dimension   ....   250
 SOSCF                 CNVSOSCF           .... on
   Start iteration     SOSCFMaxIt         ....   150
   Startup grad/error  SOSCFStart         ....  0.003300
   Hessian update      SOSCFHessUp        .... L-BFGS
   Autom. constraints  SOSCFAutoConstrain .... off
 Level Shifting         CNVShift        .... on
   Level shift para.    LevelShift      ....    0.2500
   Turn off err/grad.   ShiftErr        ....    0.0010
 Zerner damping         CNVZerner       .... off
 Static damping         CNVDamp         .... on
   Fraction old density DampFac         ....    0.7000
   Max. Damping (<1)    DampMax         ....    0.9800
   Min. Damping (>=0)   DampMin         ....    0.0000
   Turn off err/grad.   DampErr         ....    0.1000

SCF Procedure:
 Maximum # iterations   MaxIter         ....   125
 SCF integral mode      SCFMode         .... Direct
   Integral package                     .... SHARK and LIBINT hybrid scheme
 Reset frequency        DirectResetFreq ....    20
 Integral Threshold     Thresh          ....  2.500e-11 Eh
 Primitive CutOff       TCut            ....  2.500e-12 Eh

Convergence Tolerance:
 Convergence Check Mode ConvCheckMode   .... Total+1el-Energy
 Convergence forced     ConvForced      .... 0
 Energy Change          TolE            ....  1.000e-08 Eh
 1-El. energy change                    ....  1.000e-05 Eh
 Orbital Gradient       TolG            ....  1.000e-05
 Orbital Rotation angle TolX            ....  1.000e-05
 DIIS Error             TolErr          ....  5.000e-07

------------------------------
INITIAL GUESS: MODEL POTENTIAL
------------------------------
Loading Hartree-Fock densities                     ... done
Calculating cut-offs                               ... done
Initializing the effective Hamiltonian             ... done
Setting up the integral package (SHARK)            ... done
Starting the Coulomb interaction                   ... done (   0.1 sec)
Making the grid                                    ... done (   0.1 sec)
Mapping shells                                     ... done
Starting the XC term evaluation                    ... done (   0.1 sec)
  promolecular density results
     # of electrons  =     85.990994760
     EX              =    -69.849194256
     EC              =     -3.772823095
     EX+EC           =    -73.622017350
Transforming the Hamiltonian                       ... done (   0.0 sec)
Diagonalizing the Hamiltonian                      ... done (   0.0 sec)
Back transforming the eigenvectors                 ... done (   0.0 sec)
Now organizing SCF variables                       ... done
                      ------------------
                      INITIAL GUESS DONE (   0.4 sec)
                      ------------------
             **** ENERGY FILE WAS UPDATED (1.en.tmp) ****
Finished Guess after   0.4 sec
Maximum memory used throughout the entire GUESS-calculation: 16.5 MB

-------------------------------------------------------------------------------------------
                                      ORCA LEAN-SCF
                              memory conserving SCF solver
-------------------------------------------------------------------------------------------

----------------------------------------D-I-I-S--------------------------------------------
Iteration    Energy (Eh)           Delta-E    RMSDP     MaxDP     DIISErr   Damp  Time(sec)
-------------------------------------------------------------------------------------------
               ***  Starting incremental Fock matrix formation  ***
    1    -550.3838694480997447     0.00e+00  3.38e-03  1.00e-01  2.78e-01  0.700   0.8
    2    -550.5699428886697433    -1.86e-01  2.24e-03  5.06e-02  9.42e-02  0.700   0.8
                               ***Turning on AO-DIIS***
    3    -550.6288911767782110    -5.89e-02  8.56e-04  1.74e-02  2.71e-02  0.700   0.8
    4    -550.6667618600137075    -3.79e-02  1.15e-03  2.25e-02  1.20e-02  0.000   0.7
    5    -550.7542567007677690    -8.75e-02  3.72e-04  7.92e-03  1.05e-02  0.000   0.7
                              *** Initializing SOSCF ***
---------------------------------------S-O-S-C-F--------------------------------------
Iteration    Energy (Eh)           Delta-E    RMSDP     MaxDP     MaxGrad    Time(sec)
--------------------------------------------------------------------------------------
    6    -550.7550313823529677    -7.75e-04  1.44e-04  2.81e-03  2.84e-03     0.7
               *** Restarting incremental Fock matrix formation ***
    7    -550.7551122806245303    -8.09e-05  1.04e-04  2.46e-03  4.18e-04     0.8
    8    -550.7551018153764062     1.05e-05  4.84e-05  1.90e-03  1.18e-03     0.7
    9    -550.7551197769859073    -1.80e-05  3.84e-05  8.85e-04  2.15e-04     0.7
   10    -550.7551191583878563     6.19e-07  1.67e-05  3.76e-04  1.25e-04     0.7
   11    -550.7551210459049571    -1.89e-06  8.49e-06  1.68e-04  1.94e-05     0.7
   12    -550.7551210239706734     2.19e-08  3.97e-06  1.05e-04  2.26e-05     0.6
   13    -550.7551210968773603    -7.29e-08  1.81e-06  4.23e-05  6.43e-06     0.6
   14    -550.7551210963609947     5.16e-10  1.02e-06  2.36e-05  7.60e-06     0.6
                 **** Energy Check signals convergence ****

               *****************************************************
               *                     SUCCESS                       *
               *           SCF CONVERGED AFTER  14 CYCLES          *
               *****************************************************

             **** ENERGY FILE WAS UPDATED (1.en.tmp) ****

----------------
TOTAL SCF ENERGY
----------------

Total Energy       :       -550.75512109743806 Eh          -14986.80876 eV

Components:
Nuclear Repulsion  :        709.36002520865270 Eh           19302.66761 eV
Electronic Energy  :      -1260.11514630609076 Eh          -34289.47637 eV
One Electron Energy:      -2158.83155048815297 Eh          -58744.79302 eV
Two Electron Energy:        898.71640418206221 Eh           24455.31664 eV

Virial components:
Potential Energy   :      -1098.78336910771986 Eh          -29899.41553 eV
Kinetic Energy     :        548.02824801028180 Eh           14912.60677 eV
Virial Ratio       :          2.00497578929016

DFT components:
N(Alpha)           :       43.000171312186 electrons
N(Beta)            :       43.000171312186 electrons
N(Total)           :       86.000342624372 electrons
E(X)               :      -71.451190661311 Eh       
E(C)               :       -3.773322530091 Eh       
E(XC)              :      -75.224513191402 Eh       

---------------
SCF CONVERGENCE
---------------

  Last Energy change         ...   -5.1637e-10  Tolerance :   1.0000e-08
  Last MAX-Density change    ...    2.3645e-05  Tolerance :   1.0000e-07
  Last RMS-Density change    ...    1.0154e-06  Tolerance :   5.0000e-09
  Last DIIS Error            ...    2.8435e-03  Tolerance :   5.0000e-07
  Last Orbital Gradient      ...    7.6008e-06  Tolerance :   1.0000e-05
  Last Orbital Rotation      ...    1.2675e-05  Tolerance :   1.0000e-05


----------------
ORBITAL ENERGIES
----------------

  NO   OCC          E(Eh)            E(eV) 
   0   2.0000     -18.777698      -510.9671 
   1   2.0000     -18.713882      -509.2306 
   2   2.0000     -14.011278      -381.2663 
   3   2.0000     -13.996840      -380.8734 
   4   2.0000     -13.979597      -380.4042 
   5   2.0000     -10.005739      -272.2700 
   6   2.0000      -9.954255      -270.8690 
   7   2.0000      -9.942950      -270.5614 
   8   2.0000      -9.933728      -270.3105 
   9   2.0000      -9.930516      -270.2231 
  10   2.0000      -9.901006      -269.4201 
  11   2.0000      -0.982860       -26.7450 
  12   2.0000      -0.896276       -24.3889 
  13   2.0000      -0.887198       -24.1419 
  14   2.0000      -0.806439       -21.9443 
  15   2.0000      -0.788328       -21.4515 
  16   2.0000      -0.706466       -19.2239 
  17   2.0000      -0.647663       -17.6238 
  18   2.0000      -0.594691       -16.1824 
  19   2.0000      -0.560095       -15.2410 
  20   2.0000      -0.535127       -14.5615 
  21   2.0000      -0.506211       -13.7747 
  22   2.0000      -0.481832       -13.1113 
  23   2.0000      -0.460430       -12.5289 
  24   2.0000      -0.443362       -12.0645 
  25   2.0000      -0.420450       -11.4410 
  26   2.0000      -0.407261       -11.0821 
  27   2.0000      -0.389703       -10.6044 
  28   2.0000      -0.379919       -10.3381 
  29   2.0000      -0.375646       -10.2219 
  30   2.0000      -0.357077        -9.7166 
  31   2.0000      -0.346754        -9.4357 
  32   2.0000      -0.338417        -9.2088 
  33   2.0000      -0.328274        -8.9328 
  34   2.0000      -0.318503        -8.6669 
  35   2.0000      -0.303454        -8.2574 
  36   2.0000      -0.300865        -8.1870 
  37   2.0000      -0.293212        -7.9787 
  38   2.0000      -0.239907        -6.5282 
  39   2.0000      -0.207750        -5.6532 
  40   2.0000      -0.202169        -5.5013 
  41   2.0000      -0.190989        -5.1971 
  42   2.0000      -0.172412        -4.6916 
  43   0.0000       0.027373         0.7449 
  44   0.0000       0.051418         1.3992 
  45   0.0000       0.064395         1.7523 
  46   0.0000       0.071577         1.9477 
  47   0.0000       0.090356         2.4587 
  48   0.0000       0.103783         2.8241 
  49   0.0000       0.109499         2.9796 
  50   0.0000       0.123107         3.3499 
  51   0.0000       0.126927         3.4539 
  52   0.0000       0.135821         3.6959 
  53   0.0000       0.143149         3.8953 
*Only the first 10 virtual orbitals were printed.

                    ********************************
                    * MULLIKEN POPULATION ANALYSIS *
                    ********************************

-----------------------
MULLIKEN ATOMIC CHARGES
-----------------------
   0 C :    0.062848
   1 N :   -0.508865
   2 H :    0.256815
   3 C :    0.036228
   4 N :   -0.457508
   5 H :    0.131626
   6 H :    0.102222
   7 C :   -0.101793
   8 H :    0.256497
   9 H :    0.114545
  10 H :    0.108769
  11 C :   -0.175468
  12 H :    0.098373
  13 C :   -0.013432
  14 H :    0.095626
  15 H :    0.113602
  16 C :    0.563719
  17 H :    0.242631
  18 N :   -0.568203
  19 H :    0.240100
  20 O :   -0.505281
  21 H :    0.102354
  22 H :    0.297882
  23 O :   -0.493287
Sum of atomic charges:   -0.0000000

--------------------------------
MULLIKEN REDUCED ORBITAL CHARGES
--------------------------------
  0 C s       :     3.131149  s :     3.131149
      pz      :     1.072338  p :     2.740924
      px      :     0.768215
      py      :     0.900371
      dz2     :     0.009947  d :     0.065079
      dxz     :     0.009697
      dyz     :     0.013423
      dx2y2   :     0.017708
      dxy     :     0.014303

  1 N s       :     3.619874  s :     3.619874
      pz      :     1.489647  p :     3.855550
      px      :     1.257242
      py      :     1.108662
      dz2     :     0.004423  d :     0.033442
      dxz     :     0.005377
      dyz     :     0.008957
      dx2y2   :     0.008022
      dxy     :     0.006663

  2 H s       :     0.719053  s :     0.719053
      pz      :     0.010915  p :     0.024132
      px      :     0.007753
      py      :     0.005465

  3 C s       :     3.166782  s :     3.166782
      pz      :     0.990434  p :     2.741736
      px      :     0.957955
      py      :     0.793347
      dz2     :     0.009530  d :     0.055254
      dxz     :     0.010024
      dyz     :     0.011531
      dx2y2   :     0.014995
      dxy     :     0.009174

  4 N s       :     3.603925  s :     3.603925
      pz      :     1.133236  p :     3.817241
      px      :     1.626906
      py      :     1.057098
      dz2     :     0.008306  d :     0.036343
      dxz     :     0.005508
      dyz     :     0.007934
      dx2y2   :     0.004760
      dxy     :     0.009834

  5 H s       :     0.857198  s :     0.857198
      pz      :     0.006553  p :     0.011176
      px      :     0.001757
      py      :     0.002866

  6 H s       :     0.887288  s :     0.887288
      pz      :     0.004429  p :     0.010491
      px      :     0.002655
      py      :     0.003407

  7 C s       :     3.205245  s :     3.205245
      pz      :     0.964774  p :     2.845660
      px      :     0.903927
      py      :     0.976959
      dz2     :     0.013457  d :     0.050888
      dxz     :     0.009307
      dyz     :     0.007809
      dx2y2   :     0.012675
      dxy     :     0.007639

  8 H s       :     0.719835  s :     0.719835
      pz      :     0.008986  p :     0.023667
      px      :     0.007086
      py      :     0.007595

  9 H s       :     0.874260  s :     0.874260
      pz      :     0.002281  p :     0.011194
      px      :     0.002523
      py      :     0.006390

 10 H s       :     0.880441  s :     0.880441
      pz      :     0.005675  p :     0.010790
      px      :     0.002772
      py      :     0.002343

 11 C s       :     3.219900  s :     3.219900
      pz      :     0.962661  p :     2.920685
      px      :     0.970743
      py      :     0.987281
      dz2     :     0.004780  d :     0.034883
      dxz     :     0.009972
      dyz     :     0.006940
      dx2y2   :     0.006108
      dxy     :     0.007083

 12 H s       :     0.890383  s :     0.890383
      pz      :     0.005593  p :     0.011243
      px      :     0.003664
      py      :     0.001987

 13 C s       :     3.191949  s :     3.191949
      pz      :     0.895332  p :     2.764098
      px      :     0.953329
      py      :     0.915437
      dz2     :     0.010999  d :     0.057385
      dxz     :     0.014115
      dyz     :     0.011030
      dx2y2   :     0.008708
      dxy     :     0.012533

 14 H s       :     0.892578  s :     0.892578
      pz      :     0.004697  p :     0.011796
      px      :     0.004329
      py      :     0.002770

 15 H s       :     0.874824  s :     0.874824
      pz      :     0.002824  p :     0.011573
      px      :     0.003150
      py      :     0.005599

 16 C s       :     2.985264  s :     2.985264
      pz      :     0.772035  p :     2.326843
      px      :     0.738483
      py      :     0.816325
      dz2     :     0.023789  d :     0.124175
      dxz     :     0.020393
      dyz     :     0.024310
      dx2y2   :     0.020448
      dxy     :     0.035235

 17 H s       :     0.733573  s :     0.733573
      pz      :     0.008172  p :     0.023796
      px      :     0.008126
      py      :     0.007499

 18 N s       :     3.601930  s :     3.601930
      pz      :     1.134778  p :     3.937459
      px      :     1.206852
      py      :     1.595829
      dz2     :     0.003134  d :     0.028814
      dxz     :     0.010388
      dyz     :     0.006120
      dx2y2   :     0.002813
      dxy     :     0.006359

 19 H s       :     0.736013  s :     0.736013
      pz      :     0.005606  p :     0.023887
      px      :     0.009694
      py      :     0.008587

 20 O s       :     3.835411  s :     3.835411
      pz      :     1.736565  p :     4.647634
      px      :     1.671699
      py      :     1.239371
      dz2     :     0.002839  d :     0.022236
      dxz     :     0.003956
      dyz     :     0.004933
      dx2y2   :     0.003899
      dxy     :     0.006608

 21 H s       :     0.886772  s :     0.886772
      pz      :     0.003923  p :     0.010875
      px      :     0.004391
      py      :     0.002561

 22 H s       :     0.664151  s :     0.664151
      pz      :     0.011876  p :     0.037967
      px      :     0.009998
      py      :     0.016093

 23 O s       :     3.866384  s :     3.866384
      pz      :     1.424335  p :     4.600444
      px      :     1.430862
      py      :     1.745247
      dz2     :     0.007751  d :     0.026458
      dxz     :     0.007308
      dyz     :     0.003789
      dx2y2   :     0.004090
      dxy     :     0.003521



                     *******************************
                     * LOEWDIN POPULATION ANALYSIS *
                     *******************************

----------------------
LOEWDIN ATOMIC CHARGES
----------------------
   0 C :   -0.010436
   1 N :   -0.128520
   2 H :    0.130921
   3 C :   -0.027767
   4 N :   -0.187545
   5 H :    0.075323
   6 H :    0.056514
   7 C :   -0.067880
   8 H :    0.132738
   9 H :    0.072482
  10 H :    0.065552
  11 C :   -0.126184
  12 H :    0.065285
  13 C :   -0.044951
  14 H :    0.065309
  15 H :    0.076177
  16 C :    0.106164
  17 H :    0.125498
  18 N :   -0.248119
  19 H :    0.125521
  20 O :   -0.190445
  21 H :    0.070527
  22 H :    0.165867
  23 O :   -0.302030

-------------------------------
LOEWDIN REDUCED ORBITAL CHARGES
-------------------------------
  0 C s       :     2.885860  s :     2.885860
      pz      :     1.094612  p :     2.981077
      px      :     0.898250
      py      :     0.988215
      dz2     :     0.021954  d :     0.143500
      dxz     :     0.020475
      dyz     :     0.027963
      dx2y2   :     0.041209
      dxy     :     0.031899

  1 N s       :     3.178500  s :     3.178500
      pz      :     1.454992  p :     3.874186
      px      :     1.268457
      py      :     1.150736
      dz2     :     0.008083  d :     0.075833
      dxz     :     0.011475
      dyz     :     0.017857
      dx2y2   :     0.022890
      dxy     :     0.015530

  2 H s       :     0.788496  s :     0.788496
      pz      :     0.040318  p :     0.080583
      px      :     0.024153
      py      :     0.016112

  3 C s       :     2.887146  s :     2.887146
      pz      :     1.050764  p :     3.013092
      px      :     1.041528
      py      :     0.920800
      dz2     :     0.020492  d :     0.127529
      dxz     :     0.021407
      dyz     :     0.028514
      dx2y2   :     0.036702
      dxy     :     0.020414

  4 N s       :     3.186472  s :     3.186472
      pz      :     1.174399  p :     3.921671
      px      :     1.615257
      py      :     1.132016
      dz2     :     0.018766  d :     0.079402
      dxz     :     0.009098
      dyz     :     0.020736
      dx2y2   :     0.009598
      dxy     :     0.021205

  5 H s       :     0.883628  s :     0.883628
      pz      :     0.025292  p :     0.041049
      px      :     0.005000
      py      :     0.010758

  6 H s       :     0.905123  s :     0.905123
      pz      :     0.016721  p :     0.038364
      px      :     0.008993
      py      :     0.012649

  7 C s       :     2.900752  s :     2.900752
      pz      :     1.025524  p :     3.054661
      px      :     0.996190
      py      :     1.032946
      dz2     :     0.030139  d :     0.112467
      dxz     :     0.019669
      dyz     :     0.016396
      dx2y2   :     0.029750
      dxy     :     0.016513

  8 H s       :     0.784921  s :     0.784921
      pz      :     0.034131  p :     0.082341
      px      :     0.022531
      py      :     0.025678

  9 H s       :     0.888056  s :     0.888056
      pz      :     0.007048  p :     0.039462
      px      :     0.007569
      py      :     0.024845

 10 H s       :     0.895880  s :     0.895880
      pz      :     0.022394  p :     0.038568
      px      :     0.008811
      py      :     0.007363

 11 C s       :     2.907998  s :     2.907998
      pz      :     1.043366  p :     3.138536
      px      :     1.042392
      py      :     1.052777
      dz2     :     0.010295  d :     0.079651
      dxz     :     0.023257
      dyz     :     0.016806
      dx2y2   :     0.012103
      dxy     :     0.017190

 12 H s       :     0.894852  s :     0.894852
      pz      :     0.020709  p :     0.039863
      px      :     0.012750
      py      :     0.006404

 13 C s       :     2.884547  s :     2.884547
      pz      :     0.984093  p :     3.029982
      px      :     1.029018
      py      :     1.016872
      dz2     :     0.024404  d :     0.130422
      dxz     :     0.031359
      dyz     :     0.025047
      dx2y2   :     0.018904
      dxy     :     0.030708

 14 H s       :     0.893852  s :     0.893852
      pz      :     0.017151  p :     0.040839
      px      :     0.015599
      py      :     0.008090

 15 H s       :     0.883387  s :     0.883387
      pz      :     0.008939  p :     0.040437
      px      :     0.010107
      py      :     0.021391

 16 C s       :     2.867038  s :     2.867038
      pz      :     0.888191  p :     2.729347
      px      :     0.900070
      py      :     0.941085
      dz2     :     0.054063  d :     0.297451
      dxz     :     0.052195
      dyz     :     0.055839
      dx2y2   :     0.046082
      dxy     :     0.089273

 17 H s       :     0.795204  s :     0.795204
      pz      :     0.028992  p :     0.079298
      px      :     0.028103
      py      :     0.022203

 18 N s       :     3.201709  s :     3.201709
      pz      :     1.180543  p :     3.988151
      px      :     1.226085
      py      :     1.581522
      dz2     :     0.007982  d :     0.058258
      dxz     :     0.022268
      dyz     :     0.012119
      dx2y2   :     0.004702
      dxy     :     0.011187

 19 H s       :     0.795623  s :     0.795623
      pz      :     0.016665  p :     0.078857
      px      :     0.032099
      py      :     0.030093

 20 O s       :     3.482383  s :     3.482383
      pz      :     1.716984  p :     4.659081
      px      :     1.670524
      py      :     1.271573
      dz2     :     0.005382  d :     0.048981
      dxz     :     0.005676
      dyz     :     0.011162
      dx2y2   :     0.010478
      dxy     :     0.016282

 21 H s       :     0.890035  s :     0.890035
      pz      :     0.015090  p :     0.039438
      px      :     0.016982
      py      :     0.007366

 22 H s       :     0.716831  s :     0.716831
      pz      :     0.035925  p :     0.117301
      px      :     0.030236
      py      :     0.051140

 23 O s       :     3.554879  s :     3.554879
      pz      :     1.478087  p :     4.691328
      px      :     1.484918
      py      :     1.728323
      dz2     :     0.012222  d :     0.055823
      dxz     :     0.020749
      dyz     :     0.007427
      dx2y2   :     0.008346
      dxy     :     0.007078



                      *****************************
                      * MAYER POPULATION ANALYSIS *
                      *****************************

  NA   - Mulliken gross atomic population
  ZA   - Total nuclear charge
  QA   - Mulliken gross atomic charge
  VA   - Mayer's total valence
  BVA  - Mayer's bonded valence
  FA   - Mayer's free valence

  ATOM       NA         ZA         QA         VA         BVA        FA
  0 C      5.9372     6.0000     0.0628     3.8310     3.8310    -0.0000
  1 N      7.5089     7.0000    -0.5089     2.9924     2.9924    -0.0000
  2 H      0.7432     1.0000     0.2568     0.9195     0.9195    -0.0000
  3 C      5.9638     6.0000     0.0362     3.8341     3.8341     0.0000
  4 N      7.4575     7.0000    -0.4575     2.9775     2.9775    -0.0000
  5 H      0.8684     1.0000     0.1316     0.9659     0.9659    -0.0000
  6 H      0.8978     1.0000     0.1022     0.9438     0.9438    -0.0000
  7 C      6.1018     6.0000    -0.1018     3.8817     3.8817    -0.0000
  8 H      0.7435     1.0000     0.2565     0.9220     0.9220    -0.0000
  9 H      0.8855     1.0000     0.1145     0.9560     0.9560    -0.0000
 10 H      0.8912     1.0000     0.1088     0.9477     0.9477     0.0000
 11 C      6.1755     6.0000    -0.1755     3.8417     3.8417    -0.0000
 12 H      0.9016     1.0000     0.0984     0.9535     0.9535     0.0000
 13 C      6.0134     6.0000    -0.0134     3.8770     3.8770     0.0000
 14 H      0.9044     1.0000     0.0956     0.9737     0.9737    -0.0000
 15 H      0.8864     1.0000     0.1136     0.9571     0.9571     0.0000
 16 C      5.4363     6.0000     0.5637     3.9055     3.9055     0.0000
 17 H      0.7574     1.0000     0.2426     0.9324     0.9324    -0.0000
 18 N      7.5682     7.0000    -0.5682     2.8995     2.8995     0.0000
 19 H      0.7599     1.0000     0.2401     0.9206     0.9206    -0.0000
 20 O      8.5053     8.0000    -0.5053     1.9645     1.9645    -0.0000
 21 H      0.8976     1.0000     0.1024     0.9556     0.9556    -0.0000
 22 H      0.7021     1.0000     0.2979     0.9337     0.9337    -0.0000
 23 O      8.4933     8.0000    -0.4933     2.0386     2.0386    -0.0000

  Mayer bond orders larger than 0.100000
B(  0-C ,  1-N ) :   0.9067 B(  0-C ,  4-N ) :   1.0396 B(  0-C ,  5-H ) :   0.9227 
B(  0-C ,  6-H ) :   0.9412 B(  1-N ,  3-C ) :   0.9595 B(  1-N ,  8-H ) :   0.8879 
B(  1-N , 16-C ) :   0.1818 B(  2-H ,  4-N ) :   0.8896 B(  3-C ,  7-C ) :   0.9592 
B(  3-C , 11-C ) :   0.9736 B(  3-C , 12-H ) :   0.9385 B(  4-N ,  7-C ) :   1.0148 
B(  7-C ,  9-H ) :   0.9511 B(  7-C , 10-H ) :   0.9401 B( 11-C , 13-C ) :   0.9846 
B( 11-C , 14-H ) :   0.9324 B( 11-C , 15-H ) :   0.9426 B( 13-C , 16-C ) :   0.8884 
B( 13-C , 18-N ) :   1.0396 B( 13-C , 21-H ) :   0.9280 B( 16-C , 20-O ) :   1.0067 
B( 16-C , 23-O ) :   1.7855 B( 17-H , 18-N ) :   0.8969 B( 18-N , 19-H ) :   0.9079 
B( 20-O , 22-H ) :   0.8646 

-------
TIMINGS
-------

Total SCF time: 0 days 0 hours 0 min 10 sec 

Total time                  ....      10.637 sec
Sum of individual times     ....       9.982 sec  ( 93.8%)

SCF preparation             ....       0.031 sec  (  0.3%)
Fock matrix formation       ....       9.836 sec  ( 92.5%)
  Startup                   ....       0.001 sec  (  0.0% of F)
  Split-RI-J                ....       3.842 sec  ( 39.1% of F)
  XC integration            ....       6.563 sec  ( 66.7% of F)
    XC Preparation          ....       0.000 sec  (  0.0% of XC)
    Basis function eval.    ....       2.293 sec  ( 34.9% of XC)
    Density eval.           ....       1.579 sec  ( 24.1% of XC)
    XC-Functional eval.     ....       0.976 sec  ( 14.9% of XC)
    XC-Potential eval.      ....       1.570 sec  ( 23.9% of XC)
Diagonalization             ....       0.000 sec  (  0.0%)
Density matrix formation    ....       0.013 sec  (  0.1%)
Total Energy calculation    ....       0.001 sec  (  0.0%)
Population analysis         ....       0.020 sec  (  0.2%)
Orbital Transformation      ....       0.014 sec  (  0.1%)
Orbital Orthonormalization  ....       0.000 sec  (  0.0%)
DIIS solution               ....       0.038 sec  (  0.4%)
SOSCF solution              ....       0.030 sec  (  0.3%)
Finished LeanSCF after  10.6 sec

Maximum memory used throughout the entire LEANSCF-calculation: 26.1 MB



-------------------------------------------------------------------------------
                          DFT DISPERSION CORRECTION                            
-------------------------------------------------------------------------------
Active option DFTDOPT                   ...         2   
Final C6-coefficient scaling factor     ...     1.250
Final VDW-radii scaling factor          ...     1.100
Damping factor alpha                    ...    20.000
-------------------------   ----------------
Dispersion correction           -0.041741532
-------------------------   ----------------


-------------------------   --------------------
FINAL SINGLE POINT ENERGY      -550.796862629797
-------------------------   --------------------

------------------------------------------------------------------------------
                         ORCA SCF GRADIENT CALCULATION
------------------------------------------------------------------------------

Nuc. rep. gradient        (SHARK) ... done (  0.0 sec)
HCore & Overlap gradient  (SHARK) ... done (  0.2 sec)
Split-RIJ-J gradient      (SHARK) ... done (  1.0 sec)
XC gradient                       ... done (  3.9 sec)
Dispersion correction             ... done (  0.0 sec)

-------------------
DISPERSION GRADIENT
-------------------

   1   C   :   -0.000317736   -0.000560332   -0.000061946
   2   N   :    0.000121411   -0.000356059   -0.000784974
   3   H   :   -0.001782613    0.000045943   -0.000555188
   4   C   :   -0.000541027    0.000766987   -0.000240948
   5   N   :   -0.000560759   -0.000460805    0.001019385
   6   H   :   -0.000456192   -0.000404851    0.000578484
   7   H   :   -0.000347196   -0.000442774   -0.000875036
   8   C   :    0.000183802    0.000397323    0.000216894
   9   H   :    0.000119087   -0.000774589    0.000827210
  10   H   :   -0.000535852   -0.000354865    0.001040744
  11   H   :   -0.000452269    0.000931856   -0.000227545
  12   C   :    0.001339653    0.000082621    0.000674363
  13   H   :   -0.000150475    0.000242449    0.000380742
  14   C   :   -0.000357683    0.000303871   -0.000575387
  15   H   :    0.000885583    0.001547676    0.000506863
  16   H   :   -0.000321600    0.000185391   -0.000346101
  17   C   :    0.000765593    0.000306156    0.000584441
  18   H   :    0.000916090    0.000251460   -0.000720211
  19   N   :    0.000589958   -0.000078113   -0.000066623
  20   H   :    0.000301909    0.000509017   -0.000684267
  21   O   :    0.000072273   -0.000219538   -0.000086437
  22   H   :    0.000410002   -0.000122864   -0.000444937
  23   H   :   -0.000041537   -0.000066533   -0.000484737
  24   O   :    0.000159580   -0.001729425    0.000325211

Difference to translation invariance:
           :    0.0000000000    0.0000000000    0.0000000000

Difference to rotation invariance:
           :    0.0000000000   -0.0000000000    0.0000000000

Norm of the Dispersion gradient    ...    0.0052220193
RMS gradient                       ...    0.0006154209
MAX gradient                       ...    0.0017826131

------------------
CARTESIAN GRADIENT
------------------

   1   C   :    0.005959224    0.008029567    0.002273953
   2   N   :    0.002596909    0.005854730   -0.015056585
   3   H   :   -0.002085321   -0.000710598    0.003562775
   4   C   :    0.001470337   -0.010279574   -0.002768387
   5   N   :    0.010996263   -0.001513075    0.006111168
   6   H   :    0.000871033    0.001651909    0.003852880
   7   H   :   -0.000361627    0.003501801   -0.003623241
   8   C   :   -0.001694793   -0.000219727   -0.005457908
   9   H   :   -0.001366089    0.001060791   -0.003786342
  10   H   :    0.001757129   -0.006604649    0.001083227
  11   H   :    0.000953423   -0.000492435   -0.005973338
  12   C   :   -0.005436868    0.004008227   -0.002835417
  13   H   :   -0.003040144    0.000600758   -0.003858349
  14   C   :    0.001458936   -0.000797715    0.003876069
  15   H   :    0.004838046   -0.000834584    0.004807862
  16   H   :   -0.002017857   -0.006081204   -0.001245227
  17   C   :   -0.007807269    0.000823262   -0.007616624
  18   H   :    0.002737147    0.002513691    0.002766209
  19   N   :   -0.007879527   -0.012127919    0.000182217
  20   H   :   -0.001813556    0.003279371    0.002527085
  21   O   :   -0.023802138    0.011887492   -0.009174686
  22   H   :   -0.002626582   -0.000379958   -0.003921944
  23   H   :    0.005007884   -0.000129526    0.004987025
  24   O   :    0.021285441   -0.003040634    0.029287577

Difference to translation invariance:
           :   -0.0000000000   -0.0000000000    0.0000000000

Difference to rotation invariance:
           :   -0.0000088326    0.0000025698   -0.0001146886

Norm of the Cartesian gradient     ...    0.0598839505
RMS gradient                       ...    0.0070573912
MAX gradient                       ...    0.0292875773

-------
TIMINGS
-------

Total SCF gradient time     ....        5.050 sec

Densities                   ....       0.000 sec  (  0.0%)
One electron gradient       ....       0.199 sec  (  3.9%)
RI-J Coulomb gradient       ....       0.975 sec  ( 19.3%)
XC gradient                 ....       3.875 sec  ( 76.7%)

Maximum memory used throughout the entire SCFGRAD-calculation: 33.2 MB
------------------------------------------------------------------------------
                         ORCA GEOMETRY RELAXATION STEP
------------------------------------------------------------------------------

Reading the OPT-File                    .... done
Getting information on internals        .... done
Copying old internal coords+grads       .... done
Making the new internal coordinates     .... (2022 redundants) done
Validating the new internal coordinates .... (2022 redundants) done
Calculating the B-matrix                .... done
Calculating the G,G- and P matrices     .... done
Transforming gradient to internals      .... done
Projecting the internal gradient        .... done
Number of atoms                         ....  24
Number of internal coordinates          .... 117
Current Energy                          ....  -550.796862630 Eh
Current gradient norm                   ....     0.059883951 Eh/bohr
Maximum allowed component of the step   ....  0.300
Current trust radius                    ....  0.300
Evaluating the initial hessian          ....  (Almloef) done
Projecting the Hessian                  .... done
Forming the augmented Hessian           .... done
Diagonalizing the augmented Hessian     .... done
Last element of RFO vector              ....  0.885374701
Lowest eigenvalues of augmented Hessian:
 -0.043596284  0.010138353  0.010857408  0.014629480  0.016632983
Length of the computed step             ....  0.525063670
Warning: the length of the step is outside the trust region - taking restricted step instead
The input lambda is                     ....     0.009133
   iter:   5  x=   -0.006132  g=  557.574122 f(x)=     3.368942
   iter:  10  x=   -0.114235  g=    1.685353 f(x)=     0.050865
   iter:  15  x=   -0.131248  g=    0.694586 f(x)=     0.000000
The output lambda is                    ....    -0.131248 (15 iterations)
The final length of the internal step   ....  0.300000000
Converting the step to Cartesian space:
 Initial RMS(Int)=    0.0277350098
Transforming coordinates:
 Iter   0:  RMS(Cart)=    0.2875800274 RMS(Int)=    0.8123103028
 Iter   5:  RMS(Cart)=    0.0000082260 RMS(Int)=    0.0000033980
done
Storing new coordinates                 .... done

                                .--------------------.
          ----------------------|Geometry convergence|-------------------------
          Item                value                   Tolerance       Converged
          ---------------------------------------------------------------------
          RMS gradient        0.0105335172            0.0001000000      NO
          MAX gradient        0.0630298966            0.0003000000      NO
          RMS step            0.0277350098            0.0020000000      NO
          MAX step            0.1374372357            0.0040000000      NO
          -------------------------------------------------------------------------
          ........................................................
          Max(Bonds)      0.0263      Max(Angles)    7.87
          Max(Dihed)        5.06      Max(Improp)    0.00
          ---------------------------------------------------------------------

The optimization has not yet converged - more geometry cycles are needed


    ---------------------------------------------------------------------------
                         Redundant Internal Coordinates
                            (Angstroem and degrees)

        Definition                    Value    dE/dq     Step     New-Value
    ----------------------------------------------------------------------------
     1. B(N   1,C   0)                1.4711 -0.010213  0.0102    1.4813   
     2. B(C   3,N   1)                1.4638 -0.007292  0.0071    1.4709   
     3. B(N   4,C   0)                1.4431 -0.009087  0.0077    1.4508   
     4. B(N   4,H   2)                1.0155 -0.003738  0.0036    1.0191   
     5. B(H   5,C   0)                1.0942 -0.004202  0.0046    1.0988   
     6. B(H   6,C   0)                1.0984 -0.004478  0.0049    1.1034   
     7. B(C   7,C   3)                1.5438 -0.008532  0.0086    1.5524   
     8. B(C   7,N   4)                1.4533 -0.010864  0.0105    1.4638   
     9. B(H   8,N   1)                1.0115 -0.003703  0.0035    1.0150   
    10. B(H   9,C   7)                1.0876 -0.006909  0.0074    1.0950   
    11. B(H  10,C   7)                1.0947 -0.005665  0.0062    1.1009   
    12. B(C  11,C   3)                1.5338 -0.024792  0.0263    1.5600   
    13. B(H  12,C   3)                1.0930 -0.004778  0.0052    1.0982   
    14. B(C  13,C  11)                1.5270 -0.020047  0.0208    1.5479   
    15. B(H  14,C  11)                1.0920 -0.006844  0.0074    1.0994   
    16. B(H  15,C  11)                1.0883 -0.006430  0.0069    1.0951   
    17. B(C  16,C  13)                1.5343 -0.011067  0.0117    1.5461   
    18. B(N  18,H  17)                1.0165 -0.003617  0.0035    1.0200   
    19. B(N  18,C  13)                1.4535 -0.010109  0.0093    1.4628   
    20. B(H  19,N  18)                1.0148 -0.004109  0.0039    1.0188   
    21. B(O  20,C  16)                1.3623 -0.021051  0.0148    1.3772   
    22. B(H  21,C  13)                1.0938 -0.004441  0.0048    1.0986   
    23. B(H  22,O  20)                0.9685 -0.003895  0.0032    0.9717   
    24. B(O  23,C  16)                1.2153 -0.035452  0.0157    1.2310   
    25. A(N   4,C   0,H   6)          109.25 -0.002094    0.29    109.54   
    26. A(N   1,C   0,N   4)          106.95  0.002465   -0.36    106.59   
    27. A(N   1,C   0,H   5)          109.53 -0.001348    0.18    109.71   
[...]
      pz      :     0.005936  p :     0.023466
      px      :     0.009391
      py      :     0.008139

 20 O s       :     3.847297  s :     3.847297
      pz      :     1.678954  p :     4.604799
      px      :     1.628010
      py      :     1.297835
      dz2     :     0.002563  d :     0.023381
      dxz     :     0.004520
      dyz     :     0.004642
      dx2y2   :     0.003916
      dxy     :     0.007741

 21 H s       :     0.870221  s :     0.870221
      pz      :     0.004411  p :     0.010776
      px      :     0.003710
      py      :     0.002655

 22 H s       :     0.650946  s :     0.650946
      pz      :     0.012920  p :     0.037477
      px      :     0.010355
      py      :     0.014203

 23 O s       :     3.883165  s :     3.883165
      pz      :     1.446036  p :     4.558234
      px      :     1.378129
      py      :     1.734068
      dz2     :     0.005959  d :     0.026410
      dxz     :     0.007664
      dyz     :     0.002279
      dx2y2   :     0.005458
      dxy     :     0.005050



                     *******************************
                     * LOEWDIN POPULATION ANALYSIS *
                     *******************************

----------------------
LOEWDIN ATOMIC CHARGES
----------------------
   0 C :   -0.010902
   1 N :   -0.213141
   2 H :    0.130217
   3 C :   -0.027763
   4 N :   -0.203345
   5 H :    0.069223
   6 H :    0.054754
   7 C :   -0.071769
   8 H :    0.125713
   9 H :    0.069923
  10 H :    0.063945
  11 C :   -0.130868
  12 H :    0.063865
  13 C :   -0.036903
  14 H :    0.065789
  15 H :    0.077892
  16 C :    0.134069
  17 H :    0.127758
  18 N :   -0.249052
  19 H :    0.128370
  20 O :   -0.161612
  21 H :    0.078760
  22 H :    0.179146
  23 O :   -0.264070

-------------------------------
LOEWDIN REDUCED ORBITAL CHARGES
-------------------------------
  0 C s       :     2.902032  s :     2.902032
      pz      :     1.082030  p :     2.975369
      px      :     0.911935
      py      :     0.981403
      dz2     :     0.019436  d :     0.133501
      dxz     :     0.020372
      dyz     :     0.029536
      dx2y2   :     0.034207
      dxy     :     0.029950

  1 N s       :     3.220624  s :     3.220624
      pz      :     1.363317  p :     3.923530
      px      :     1.379369
      py      :     1.180844
      dz2     :     0.015489  d :     0.068987
      dxz     :     0.006827
      dyz     :     0.012814
      dx2y2   :     0.022691
      dxy     :     0.011167

  2 H s       :     0.790333  s :     0.790333
      pz      :     0.041535  p :     0.079450
      px      :     0.024417
      py      :     0.013498

  3 C s       :     2.899365  s :     2.899365
      pz      :     1.052498  p :     3.006702
      px      :     1.034566
      py      :     0.919638
      dz2     :     0.021476  d :     0.121696
      dxz     :     0.020521
      dyz     :     0.022521
      dx2y2   :     0.035215
      dxy     :     0.021963

  4 N s       :     3.214295  s :     3.214295
      pz      :     1.165841  p :     3.913729
      px      :     1.624234
      py      :     1.123654
      dz2     :     0.018327  d :     0.075321
      dxz     :     0.009320
      dyz     :     0.017492
      dx2y2   :     0.009026
      dxy     :     0.021156

  5 H s       :     0.891664  s :     0.891664
      pz      :     0.022368  p :     0.039113
      px      :     0.004976
      py      :     0.011770

  6 H s       :     0.907825  s :     0.907825
      pz      :     0.016047  p :     0.037420
      px      :     0.009809
      py      :     0.011564

  7 C s       :     2.913989  s :     2.913989
      pz      :     1.034228  p :     3.050465
      px      :     1.001969
      py      :     1.014268
      dz2     :     0.026219  d :     0.107315
      dxz     :     0.017959
      dyz     :     0.017333
      dx2y2   :     0.028633
      dxy     :     0.017170

  8 H s       :     0.794846  s :     0.794846
      pz      :     0.041216  p :     0.079441
      px      :     0.019224
      py      :     0.019001

  9 H s       :     0.891686  s :     0.891686
      pz      :     0.007933  p :     0.038391
      px      :     0.007447
      py      :     0.023010

 10 H s       :     0.898391  s :     0.898391
      pz      :     0.022441  p :     0.037664
      px      :     0.009012
      py      :     0.006211

 11 C s       :     2.914945  s :     2.914945
      pz      :     1.045018  p :     3.138984
      px      :     1.039360
      py      :     1.054606
      dz2     :     0.012040  d :     0.076939
      dxz     :     0.024071
      dyz     :     0.012825
      dx2y2   :     0.011913
      dxy     :     0.016090

 12 H s       :     0.897510  s :     0.897510
      pz      :     0.019429  p :     0.038625
      px      :     0.012088
      py      :     0.007108

 13 C s       :     2.891422  s :     2.891422
      pz      :     0.995800  p :     3.021166
      px      :     1.023738
      py      :     1.001628
      dz2     :     0.018378  d :     0.124315
      dxz     :     0.029523
      dyz     :     0.027376
      dx2y2   :     0.016852
      dxy     :     0.032186

 14 H s       :     0.894064  s :     0.894064
      pz      :     0.017148  p :     0.040147
      px      :     0.015487
      py      :     0.007512

 15 H s       :     0.882795  s :     0.882795
      pz      :     0.007909  p :     0.039313
      px      :     0.009482
      py      :     0.021922

 16 C s       :     2.874124  s :     2.874124
      pz      :     0.876487  p :     2.716381
      px      :     0.923647
      py      :     0.916248
      dz2     :     0.036481  d :     0.275425
      dxz     :     0.047227
      dyz     :     0.038625
      dx2y2   :     0.055644
      dxy     :     0.097449

 17 H s       :     0.795005  s :     0.795005
      pz      :     0.031214  p :     0.077237
      px      :     0.024451
      py      :     0.021573

 18 N s       :     3.230400  s :     3.230400
      pz      :     1.238571  p :     3.961955
      px      :     1.227871
      py      :     1.495513
      dz2     :     0.007066  d :     0.056697
      dxz     :     0.020137
      dyz     :     0.011360
      dx2y2   :     0.004648
      dxy     :     0.013485

 19 H s       :     0.794491  s :     0.794491
      pz      :     0.017926  p :     0.077139
      px      :     0.030957
      py      :     0.028257

 20 O s       :     3.497085  s :     3.497085
      pz      :     1.657663  p :     4.615872
      px      :     1.634797
      py      :     1.323412
      dz2     :     0.005066  d :     0.048656
      dxz     :     0.006109
      dyz     :     0.010359
      dx2y2   :     0.008812
      dxy     :     0.018311

 21 H s       :     0.882237  s :     0.882237
      pz      :     0.017052  p :     0.039003
      px      :     0.014208
      py      :     0.007743

 22 H s       :     0.706824  s :     0.706824
      pz      :     0.039419  p :     0.114030
      px      :     0.031139
      py      :     0.043473

 23 O s       :     3.569429  s :     3.569429
      pz      :     1.467772  p :     4.640319
      px      :     1.457739
      py      :     1.714808
      dz2     :     0.008455  d :     0.054323
      dxz     :     0.019618
      dyz     :     0.004155
      dx2y2   :     0.012731
      dxy     :     0.009364



                      *****************************
                      * MAYER POPULATION ANALYSIS *
                      *****************************

  NA   - Mulliken gross atomic population
  ZA   - Total nuclear charge
  QA   - Mulliken gross atomic charge
  VA   - Mayer's total valence
  BVA  - Mayer's bonded valence
  FA   - Mayer's free valence

  ATOM       NA         ZA         QA         VA         BVA        FA
  0 C      5.9554     6.0000     0.0446     3.8546     3.8546    -0.0000
  1 N      7.4944     7.0000    -0.4944     2.9219     2.9219     0.0000
  2 H      0.7434     1.0000     0.2566     0.9217     0.9217    -0.0000
  3 C      5.9846     6.0000     0.0154     3.8727     3.8727    -0.0000
  4 N      7.4635     7.0000    -0.4635     2.9527     2.9527     0.0000
  5 H      0.8780     1.0000     0.1220     0.9576     0.9576     0.0000
  6 H      0.9031     1.0000     0.0969     0.9452     0.9452    -0.0000
  7 C      6.0985     6.0000    -0.0985     3.8721     3.8721    -0.0000
  8 H      0.7596     1.0000     0.2404     0.9215     0.9215    -0.0000
  9 H      0.8917     1.0000     0.1083     0.9571     0.9571    -0.0000
 10 H      0.8963     1.0000     0.1037     0.9503     0.9503    -0.0000
 11 C      6.1781     6.0000    -0.1781     3.8311     3.8311    -0.0000
 12 H      0.9078     1.0000     0.0922     0.9548     0.9548     0.0000
 13 C      6.0222     6.0000    -0.0222     3.8666     3.8666     0.0000
 14 H      0.9030     1.0000     0.0970     0.9752     0.9752     0.0000
 15 H      0.8865     1.0000     0.1135     0.9577     0.9577    -0.0000
 16 C      5.4424     6.0000     0.5576     3.8765     3.8765     0.0000
 17 H      0.7578     1.0000     0.2422     0.9242     0.9242    -0.0000
 18 N      7.5652     7.0000    -0.5652     2.8913     2.8913    -0.0000
 19 H      0.7559     1.0000     0.2441     0.9191     0.9191     0.0000
 20 O      8.4755     8.0000    -0.4755     2.0319     2.0319     0.0000
 21 H      0.8810     1.0000     0.1190     0.9546     0.9546    -0.0000
 22 H      0.6884     1.0000     0.3116     0.9235     0.9235     0.0000
 23 O      8.4678     8.0000    -0.4678     2.0552     2.0552    -0.0000

  Mayer bond orders larger than 0.100000
B(  0-C ,  1-N ) :   0.9330 B(  0-C ,  4-N ) :   1.0226 B(  0-C ,  5-H ) :   0.9348 
B(  0-C ,  6-H ) :   0.9445 B(  1-N ,  3-C ) :   0.9948 B(  1-N ,  8-H ) :   0.9001 
B(  2-H ,  4-N ) :   0.8860 B(  3-C ,  7-C ) :   0.9532 B(  3-C , 11-C ) :   0.9731 
B(  3-C , 12-H ) :   0.9392 B(  4-N ,  7-C ) :   1.0061 B(  7-C ,  9-H ) :   0.9492 
B(  7-C , 10-H ) :   0.9416 B( 11-C , 13-C ) :   0.9825 B( 11-C , 14-H ) :   0.9292 
B( 11-C , 15-H ) :   0.9372 B( 13-C , 16-C ) :   0.9038 B( 13-C , 18-N ) :   1.0041 
B( 13-C , 21-H ) :   0.9273 B( 16-C , 20-O ) :   1.0654 B( 16-C , 23-O ) :   1.8002 
B( 17-H , 18-N ) :   0.9004 B( 18-N , 19-H ) :   0.9034 B( 20-O , 22-H ) :   0.8567 


-------
TIMINGS
-------

Total SCF time: 0 days 0 hours 0 min 5 sec 

Total time                  ....       5.247 sec
Sum of individual times     ....       4.621 sec  ( 88.1%)

SCF preparation             ....       0.039 sec  (  0.7%)
Fock matrix formation       ....       4.520 sec  ( 86.1%)
  Startup                   ....       0.001 sec  (  0.0% of F)
  Split-RI-J                ....       1.843 sec  ( 40.8% of F)
  XC integration            ....       3.225 sec  ( 71.3% of F)
    Basis function eval.    ....       1.184 sec  ( 36.7% of XC)
    Density eval.           ....       0.778 sec  ( 24.1% of XC)
    XC-Functional eval.     ....       0.525 sec  ( 16.3% of XC)
    XC-Potential eval.      ....       0.660 sec  ( 20.5% of XC)
Diagonalization             ....       0.000 sec  (  0.0%)
Density matrix formation    ....       0.003 sec  (  0.1%)
Total Energy calculation    ....       0.001 sec  (  0.0%)
Population analysis         ....       0.025 sec  (  0.5%)
Orbital Transformation      ....       0.007 sec  (  0.1%)
Orbital Orthonormalization  ....       0.000 sec  (  0.0%)
DIIS solution               ....       0.005 sec  (  0.1%)
SOSCF solution              ....       0.022 sec  (  0.4%)
Finished LeanSCF after   5.3 sec

Maximum memory used throughout the entire LEANSCF-calculation: 26.5 MB



-------------------------------------------------------------------------------
                          DFT DISPERSION CORRECTION                            
-------------------------------------------------------------------------------
Active option DFTDOPT                   ...         2   
Final C6-coefficient scaling factor     ...     1.250
Final VDW-radii scaling factor          ...     1.100
Damping factor alpha                    ...    20.000
-------------------------   ----------------
Dispersion correction           -0.040564023
-------------------------   ----------------


-------------------------   --------------------
FINAL SINGLE POINT ENERGY      -550.809425263728
-------------------------   --------------------

                                *** OPTIMIZATION RUN DONE ***


------------------------------------------------------------------------------
                              ORCA PROPERTY CALCULATIONS
------------------------------------------------------------------------------

GBWName                                 ... 1.gbw
Number of atoms                         ...     24
Number of basis functions               ...    219
Max core memory                         ...   4096 MB

Electric properties:
Dipole moment                           ... YES
Quadrupole moment                       ...  NO
Static polarizability (Dipole/Dipole)   ...  NO
Static polarizability (Dipole/Quad.)    ...  NO
Static polarizability (Quad./Quad.)     ...  NO
Static polarizability (Velocity)        ...  NO
Static hyperpolarizability              ...  NO

Atomic electric properties:
Dipole moment                           ...  NO
Quadrupole moment                       ...  NO
Static polarizability                   ...  NO

Choice of electric origin               ... Center of mass
Position of electric origin             ...   -13.048274     5.991040    -0.482251

General magnetic properties:
Magnetizability                         ...  NO

EPR properties:
g-Tensor (aka g-matrix)                 ...  NO
Zero-Field splitting spin-orbit         ...  NO
Zero-field splitting spin-spin          ...  NO
Hyperfine couplings                     ...  NO (   0 nuclei)
Quadrupole couplings                    ...  NO (   0 nuclei)
Contact density                         ...  NO (   0 nuclei)

NMR properties:
Chemical shifts                         ...  NO (   0 nuclei)
Spin-rotation constants                 ...  NO (   0 nuclei)
Spin-spin couplings                     ...  NO (   0 nuclei,    0 pairs)

Choice of magnetic origin               ... GIAO
Position of magnetic origin             ...     0.000000     0.000000     0.000000

Properties with geometric perturbations:
SCF Hessian                             ...  NO
IR spectrum                             ...  NO
VCD spectrum                            ...  NO
X-ray spectroscopy properties:
SCF XES/XAS/RIXS spectra                ...  NO

SCF SOC stabilization energy            ...  NO
Diagonal Born-Oppenheimer correction    ...  NO

-------------
DIPOLE MOMENT
-------------

Method             : SCF
Type of density    : Electron Density
Multiplicity       :   1
Irrep              :   0
Energy             :  -550.7688612409787083 Eh
Basis              : AO
                                X                 Y                 Z
Electronic contribution:      2.378670422      -4.094091809      -3.813036806
Nuclear contribution   :     -1.959378291       3.822721714       4.121759053
                        -----------------------------------------
Total Dipole Moment    :      0.419292131      -0.271370094       0.308722246
                        -----------------------------------------
Magnitude (a.u.)       :      0.587160153
Magnitude (Debye)      :      1.492442502



--------------------
Rotational spectrum 
--------------------
 
Rotational constants in cm-1:             0.059130             0.028817             0.023995 
Rotational constants in MHz :          1772.669895           863.902392           719.339986 

Dipole components along the rotational axes: 
x,y,z [a.u.] :    -0.182639     0.091583     0.550466 
x,y,z [Debye]:    -0.464230     0.232784     1.399173 

 

Dipole moment calculation done in   0.0 sec 

Maximum memory used throughout the entire PROP-calculation: 15.3 MB

--------------------------------
SUGGESTED CITATIONS FOR THIS RUN
--------------------------------

Below you find a list of papers that are relevant to this ORCA run
We neither can nor want to force you to cite these papers, but we appreciate if you do
You receive ORCA, which is the product of decades of hard work by many enthusiastic individuals, for free
The only thing we kindly ask in return is that you cite our papers,
We deeply appreciate it, if you show your appreciation for ORCA by not just citing the generic ORCA reference.

Please note that relegating all ORCA citations to the supporting information does *not* help us.
SI sections are not indexed - citations you put there will not count into any citation statistics
But we need these citations in order to attract the funding resources that allow us to do what we are doing

Therefore, if you are a happy ORCA user, please consider citing a few of the papers listed below in the main body of your paper

In addition to the list printed below, the program has created the file 1.bibtex that contains the list in bibtex format
You can import this file easily into all common literature databanks and citation aid programs


List of essential papers. We consider these as the minimum necessary citations

  1. Neese, F.
     Software update: the ORCA program system, version 6.0
     WIRES Comput. Molec. Sci. 2025 15(1), e70019
     doi.org/10.1002/wcms.7019

List of papers to cite with high priority. The work reported in these papers was absolutely
necessary for this run to complete.
Our perspective: the developers of density functionals and basis sets usually get cited in chemistry papers
Good! But without the algorithms to do something with them, the functionals or basis sets would not do anything.
Hence, in our opinion, the algorithm design and method developments papers are equally worthy of getting cited

  1. Neese, F.
     An improvement of the resolution of the identity approximation for the formation of the Coulomb matrix
     J. Comp. Chem. 2003 24(14), 1740-1747
     doi.org/10.1002/jcc.10318
  2. Grimme, S.
     Semiempirical GGA-type density functional constructed with a long-range dispersion correction
     J.Comput.Chem. 2006 27(15), 1787-1799
     doi.org/10.1002/jcc.20495
  3. Neese, F.
     The SHARK Integral Generation and Digestion System
     J. Comp. Chem. 2022 44(3), 381
     doi.org/10.1002/jcc.26942

List of suggested additional citations. These are papers that are important in the 'surrounding' of 
of this run, or papers that preceded the highly important papers. If you like your results we are grateful for a citation.

  1. Neese, F.
     The ORCA program system
     WIRES Comput. Molec. Sci. 2012 2(1), 73-78
     doi.org/10.1002/wcms.81
  2. Neese, F.
     Software update: the ORCA program system, version 4.0
     WIRES Comput. Molec. Sci. 2018 8(1), 1-6
     doi.org/10.1002/wcms.1327
  3. Neese, F.; Wennmohs, F.; Becker, U.; Riplinger, C.
     The ORCA quantum chemistry program package
     J. Chem. Phys. 2020 152(22), 224108
     doi.org/10.1063/5.0004608
  4. Neese, F.
     Software update: The ORCA program system—Version 5.0
     WIRES Comput. Molec. Sci. 2022 12(1), e1606
     doi.org/10.1002/wcms.1606

List of optional additional citations

  1. Neese, F.
     Approximate second-order SCF convergence for spin unrestricted wavefunctions
     Chem. Phys. Lett. 2000 325(1-3), 93-98
     doi.org/10.1016/s0009-2614(00)00662-x

Timings for individual modules:

Sum of individual times          ...      197.140 sec (=   3.286 min)
Startup calculation              ...        9.248 sec (=   0.154 min)   4.7 %
SCF iterations                   ...      114.219 sec (=   1.904 min)  57.9 %
Property calculations            ...        0.045 sec (=   0.001 min)   0.0 %
SCF Gradient evaluation          ...       73.585 sec (=   1.226 min)  37.3 %
Geometry relaxation              ...        0.043 sec (=   0.001 min)   0.0 %
                             ****ORCA TERMINATED NORMALLY****
TOTAL RUN TIME: 0 days 0 hours 3 minutes 17 seconds 577 msec
