
                                 *****************
                                 * O   R   C   A *
                                 *****************

                                            #,                                       
                                            ###                                      
                                            ####                                     
                                            #####                                    
                                            ######                                   
                                           ########,                                 
                                     ,,################,,,,,                         
                               ,,#################################,,                 
                          ,,##########################################,,             
                       ,#########################################, ''#####,          
                    ,#############################################,,   '####,        
                  ,##################################################,,,,####,       
                ,###########''''           ''''###############################       
              ,#####''   ,,,,##########,,,,          '''####'''          '####       
            ,##' ,,,,###########################,,,                        '##       
           ' ,,###''''                  '''############,,,                           
         ,,##''                                '''############,,,,        ,,,,,,###''
      ,#''                                            '''#######################'''  
     '                                                          ''''####''''         
             ,#######,   #######,   ,#######,      ##                                
            ,#'     '#,  ##    ##  ,#'     '#,    #''#        ,####,    ,#,          
            ##       ##  ##   ,#'  ##            #'  '#       #'       ,# #          
            ##       ##  #######   ##           ,######,      #####,      #          
            '#,     ,#'  ##    ##  '#,     ,#' ,#      #,     #,   #      #          
             '#######'   ##     ##  '#######'  #'      '#     '####' #    #          



                #########################################################
                #                        -***-                          #
                #          Department of theory and spectroscopy        #
                #                                                       #
                #                      Frank Neese                      #
                #                                                       #
                #     Directorship, Architecture, Infrastructure        #
                #                    SHARK, DRIVERS                     #
                #        Core code/Algorithms in most modules           #
                #                                                       #
                #        Max Planck Institute fuer Kohlenforschung      #
                #                Kaiser Wilhelm Platz 1                 #
                #                 D-45470 Muelheim/Ruhr                 #
                #                      Germany                          #
                #                                                       #
                #                  All rights reserved                  #
                #                        -***-                          #
                #########################################################


                         Program Version 6.1.0  -  RELEASE   -
                                (GIT: $679e74b$)
                          ($2025-06-10 18:02:51 +0200$)


 With contributions from (in alphabetic order):
[Max-Planck-Institut fuer Kohlenforschung]                               
  Daniel Aravena         : Magnetic Suceptibility                        
  Michael Atanasov       : Ab Initio Ligand Field Theory (pilot matlab implementation)
  Alexander A. Auer      : GIAO ZORA, VPT2 properties, NMR spectrum      
  Ute Becker             : All parallelization in ORCA, NUMFREQ, NUMCALC 
  Giovanni Bistoni       : ED, misc. LED, open-shell LED, HFLD           
  Dmytro Bykov           : pre 5.0 version of the SCF Hessian            
  Marcos Casanova-Páez   : Triplet and SCS-CIS(D). UHF-(DLPNO)-IP/EA/STEOM-CCSD. UHF-CVS-IP/STEOM-CCSD   
  Vijay G. Chilkuri      : MRCI spin determinant printing, contributions to CSF-ICE 
  Pauline Colinet        : FMM embedding                                 
  Dipayan Datta          : RHF DLPNO-CCSD density                        
  Achintya Kumar Dutta   : EOM-CC, STEOM-CC                              
  Nicolas Foglia         : Exact transition moments, OPA infrastructure, MCD improvements    
  Dmitry Ganyushin       : Spin-Orbit,Spin-Spin,Magnetic field MRCI      
  Miquel Garcia-Rates    : C-PCM and meta-GGA Hessian, CCSD/C-PCM, Gaussian charge scheme 
  Tiago L. C. Gouveia    : GS-ROHF, GS-ROCIS                             
  Yang Guo               : DLPNO-NEVPT2, F12-NEVPT2, CIM, IAO-localization        
  Andreas Hansen         : Spin unrestricted coupled pair/coupled cluster methods 
  Ingolf Harden          : AUTO-CI MPn and infrastructure                
  Benjamin Helmich-Paris : MC-RPA, TRAH-(SCF,CASSCF), AVAS, COSX integrals, SCF dyn. polar., MC-PDFT, srDFT 
  Lee Huntington         : MR-EOM, pCC                                   
  Robert Izsak           : Overlap fitted RIJCOSX, COSX-SCS-MP3, EOM     
  Riya Kayal             : Wick's Theorem for AUTO-CI, AUTO-CI UHF-CCSDT 
  Emily Kempfer          : AUTO-CI RHF CISDT and CCSDT, approximate NEVPT4
  Christian Kollmar      : KDIIS, OOCD, Brueckner-CCSD(T), CCSD density, CASPT2, CASPT2-K, improved NEVPT2 
  Axel Koslowski         : Symmetry handling                             
  Simone Kossmann        : meta-GGA functionals, TD-DFT gradient, OOMP2, (MP2 Hessian; deprecated post 5.0) 
  Lucas Lang             : DCDCAS, Hyperfine gauge corrections, ICE-SOC+SSC
  Marvin Lechner         : AUTO-CI (C++ implementation), FIC-MRCC        
  Spencer Leger          : CASSCF response                               
  Dagmar Lenk            : GEPOL surface, SMD, ORCA-2-JSON               
  Dimitrios Liakos       : Extrapolation schemes; Compound Job, Property file
  Dimitrios Manganas     : Further ROCIS development; embedding schemes. LFT, Crystal Embedding 
  Dimitrios Pantazis     : SARC Basis sets                               
  Anastasios Papadopoulos: AUTO-CI, single reference methods and gradients 
  Taras Petrenko         : pre 6.0 DFT Hessian and TD-DFT gradient,  ECA, NRVS 
  Petra Pikulova         : Analytic Raman intensities                    
  Peter Pinski           : DLPNO-MP2, DLPNO-MP2 Gradient                 
  Shashank Vittal Rao    : ES-AILFT, MagRelax                            
  Christoph Reimann      : Effective Core Potentials                     
  Marius Retegan         : Local ZFS, SOC                                
  Christoph Riplinger    : Optimizer, TS searches, QM/MM, DLPNO-CCSD(T), (RO)-DLPNO pert. Triples 
  Michael Roemelt        : Original ROCIS implementation, recursive CI coupling coefficients
  Masaaki Saitow         : Open-shell DLPNO-CCSD energy and density      
  Barbara Sandhoefer     : DKH picture change effects                    
  Yorick L. A. Schmerwitz: GMF and freeze-and-release deltaSCF, NEB S-IDPP initial path                    
  Kantharuban Sivalingam : CASSCF convergence/infrastructure, NEVPT2, NEVPT3, NEVPT4(SD), FIC-MRCI and CEPA variants
  Bernardo de Souza      : ESD, SOC TD-DFT                               
  Georgi L. Stoychev     : AutoAux, RI-MP2 NMR, DLPNO-MP2 response, X2C  
  Van Anh Tran           : RI-MP2 g-tensors                              
  Willem Van den Heuvel  : Paramagnetic NMR                              
  Zikuan Wang            : NOTCH, Electric field optimization            
  Frank Wennmohs         : Technical directorship and infrastructure     
  Hang Xu                : AUTO-CI-Response properties                   
                                                                         
[FACCTs GmbH]                                                            
  Markus Bursch, Nicolas Foglia, Miquel Garcia-Rates, Ingolf Harden, Hagen Neugebauer, Anastasios Papadopoulos, 
  Christoph Riplinger, Bernardo de Souza, Georgi L. Stoychev                                                    
                                                                 
  APM, various basis sets, CI-OPT, improved COSX, DLPNO-Multilevel,           
  DOCKER, DRACO, updates on ESD, Fragmentator, GOAT, IRC, LR-CPCM, L-BFGS, MBIS, meta-GGA TD-DFT gradient, ML-optimized integration grids, 
  MM, NACMEs, nearIR, NEB, NEB-TS, NL-DFT gradient (VV10), 2- and 3-layer-ONIOM, interface openCOSMO-RS, QMMM,   
  Crystal-QMMM, RESP, rigid body optimization, SF, symmetry and pop. for TD-DFT, various functionals, SOLVATOR                                   
                                                                         
[Other institutions]                                                     
  V. Asgeirsson          : NEB                                           
  Christoph Bannwarth    : sTDA-DFT, sTD-DFT, PBEh-3c, B97-3c, D3        
  Giovanni Bistoni       : ETS/NOCV, ADLD/ADEX, COVALED                  
  Martin Brehm           : Molecular dynamics                            
  Ronald Cardenas        : ETS/NOCV                                      
  Martina Colucci        : COVALED                                       
  Sebastian Ehlert       : rSCAN, r2SCAN, r2SCAN-3c, D4, dhf basis sets  
  Marvin Friede          : D4 for Fr, Ra, Ac-Lr                          
  Lars Goerigk           : TD-DFT with DH, B97 family of functionals     
  Stefan Grimme          : VdW corrections, initial TS optimization, DFT functionals, gCP, sTDA/sTD-DF 
  Waldemar Hujo          : DFT-NL                                        
  H. Jonsson             : NEB                                           
  Holger Kruse           : gCP                                           
  Marcel Mueller         : wB97X-3c, vDZP basis set                      
  Hagen Neugebauer       : wr2SCAN, Native XTB                           
  Gianluca Regni         : ADLD/ADEX                                     
  Tobias Risthaus        : pre 6.0 range-separated hybrid DFT and stability analysis
  Lukas Wittmann         : regularized MP2, r2SCAN double-hybrids, wr2SCAN        
                                                                         
We gratefully acknowledge several colleagues who have allowed us to      
interface, adapt or use parts of their codes:                            
  Ed Valeev, F. Pavosevic, A. Kumar             : LibInt (2-el integral package), F12 methods 
  Garnet Chan, S. Sharma, J. Yang, R. Olivares  : DMRG                   
  Ulf Ekstrom                                   : XCFun DFT Library      
  Mihaly Kallay                                 : mrcc  (arbitrary order and MRCC methods)
  Frank Weinhold                                : gennbo (NPA and NBO analysis)           
  Simon Mueller                                 : openCOSMO-RS                            
  Christopher J. Cramer and Donald G. Truhlar   : smd solvation model                     
  S Lehtola, MJT Oliveira, MAL Marques          : LibXC Library                           
  Liviu Ungur et al                             : ANISO software                          


 Your calculation uses the libint2 library for the computation of 2-el integrals
 For citations please refer to: http://libint.valeyev.net

 Your ORCA version has been built with support for libXC version: 7.0.0
 For citations please refer to: https://libxc.gitlab.io

 This ORCA versions uses:
   CBLAS   interface :  Fast vector & matrix operations
   LAPACKE interface :  Fast linear algebra routines
   SCALAPACK package :  Parallel linear algebra routines
   Shared memory     :  Shared parallel matrices
   BLAS/LAPACK       :  OpenBLAS 0.3.29  USE64BITINT DYNAMIC_ARCH NO_AFFINITY Haswell SINGLE_THREADED
        Core in use  :  Haswell
   Copyright (c) 2011-2014, The OpenBLAS Project


  ***********************************
  * Starting time: Wed Sep  3 15:57:28 2025
  * Host name:     chemlab03
  * Process ID:    122325
  * Working dir.:  /home/vivek/mm-project/vivek/xtb-goat/MP2-opt/l/2
  ***********************************



***************************************
The coordinates will be read from file: /home/vivek/mm-project/vivek/xtb-goat/xtb-goat/l/L_CONF/2.xyz
***************************************


================================================================================

----- Orbital basis set information -----
Your calculation utilizes the basis: 6-31G**
   H-He, Li-Ne : W. J. Hehre, R. Ditchfield and J.A. Pople, J. Chem. Phys. 56, 2257 (1972).
                 Note: He and Ne are unpublished basis sets taken from the Gaussian program.
                 Note: Li and B from J. D. Dill and J. A. Pople, J. Chem. Phys. 62, 2921 (1975).
   Na - Ar     : M. M. Francl, W. J. Pietro, W. J. Hehre, J. S. Binkley, M. S. Gordon, 
                 D. J. DeFrees and J. A. Pople, J. Chem. Phys. 77, 3654 (1982).
   K - Zn      : V. A. Rassolov, J. A. Pople, M. A. Ratner, and T. L. Windus, J. Chem. Phys. 109, 1223 (1998).

================================================================================
                                        WARNINGS
                       Please study these warnings very carefully!
================================================================================


WARNING: The frozen-core approximation for MP2-gradient calculations is turned on by default.

WARNING: Geometry Optimization
  ===> : Switching off AutoStart
         For restart on a previous wavefunction, please use MOREAD

WARNING: Post HF methods need fully converged wavefunctions
  ===> : Setting SCFConvForced true
         You can overwrite this default with %scf ConvForced false 


================================================================================
                                       INPUT FILE
================================================================================
NAME = 2.inp
|  1> ! MP2 6-31G** opt
|  2> 
|  3> * xyzfile 0 1 /home/vivek/mm-project/vivek/xtb-goat/xtb-goat/l/L_CONF/2.xyz
|  4> 
|  5>                          ****END OF INPUT****
================================================================================

                       *****************************
                       * Geometry Optimization Run *
                       *****************************

Geometry optimization settings:
Update method            Update   .... BFGS
Choice of coordinates    CoordSys .... (2022) Redundant Internals
Initial Hessian          InHess   .... Almloef's Model
Max. no of cycles        MaxIter  .... 66

Convergence Tolerances:
Energy Change            TolE     ....  5.0000e-06 Eh
Max. Gradient            TolMAXG  ....  3.0000e-04 Eh/bohr
RMS Gradient             TolRMSG  ....  1.0000e-04 Eh/bohr
Max. Displacement        TolMAXD  ....  4.0000e-03 bohr
RMS Displacement         TolRMSD  ....  2.0000e-03 bohr
Strict Convergence                .... False

------------------------------------------------------------------------------
                        ORCA OPTIMIZATION COORDINATE SETUP
------------------------------------------------------------------------------

The optimization will be done in redundant internal coordinates (2022)
Making redundant internal coordinates   ...  (2022 redundants) done
Evaluating the initial hessian          ...  (Almloef) done
Evaluating the coordinates              ...  done
Calculating the B-matrix                .... done
Calculating the G-matrix                .... done
The number of degrees of freedom        ....   94

    -----------------------------------------------------------------
                    Redundant Internal Coordinates


    -----------------------------------------------------------------
         Definition                    Initial Value    Approx d2E/dq
    -----------------------------------------------------------------
      1. B(C   1,C   0)                  1.5225         0.384076   
      2. B(C   4,C   0)                  1.5378         0.362958   
      3. B(H   5,C   0)                  1.0928         0.356425   
      4. B(N   7,H   3)                  1.0159         0.423406   
      5. B(N   7,C   0)                  1.4528         0.444227   
      6. B(N   7,H   2)                  1.0148         0.425200   
      7. B(C   8,C   4)                  1.5316         0.371407   
      8. B(H   9,C   4)                  1.0912         0.358565   
      9. B(H  10,C   4)                  1.0929         0.356301   
     10. B(C  11,C   8)                  1.5268         0.377990   
     11. B(H  12,C  11)                  1.0877         0.363190   
     12. B(C  13,C   8)                  1.5282         0.376013   
     13. B(C  13,H   6)                  1.0876         0.363350   
     14. B(H  14,C  11)                  1.0863         0.365046   
     15. B(H  15,C  11)                  1.0877         0.363090   
     16. B(H  16,C   8)                  1.0956         0.352752   
     17. B(H  17,C  13)                  1.0874         0.363523   
     18. B(H  18,C  13)                  1.0878         0.363076   
     19. B(O  19,C   1)                  1.3383         0.676765   
     20. B(H  20,O  19)                  0.9712         0.498954   
     21. B(O  21,C   1)                  1.2034         1.110785   
     22. A(C   4,C   0,N   7)          108.3714         0.370133   
     23. A(C   1,C   0,H   5)          108.8001         0.325251   
     24. A(H   5,C   0,N   7)          108.4946         0.331151   
     25. A(C   4,C   0,H   5)          110.2253         0.322246   
     26. A(C   1,C   0,N   7)          111.7340         0.373755   
     27. A(C   1,C   0,C   4)          109.2097         0.363283   
     28. A(C   0,C   1,O  21)          124.4634         0.439396   
     29. A(C   0,C   1,O  19)          112.9046         0.402222   
     30. A(O  19,C   1,O  21)          122.6221         0.484052   
     31. A(H   9,C   4,H  10)          107.7917         0.290161   
     32. A(C   0,C   4,H  10)          107.6292         0.322228   
     33. A(C   8,C   4,H   9)          109.7349         0.323782   
     34. A(C   0,C   4,H   9)          107.0208         0.322562   
     35. A(C   0,C   4,C   8)          115.3458         0.361208   
     36. A(C   8,C   4,H  10)          109.0522         0.323446   
     37. A(C   0,N   7,H   2)          110.5704         0.338080   
     38. A(H   2,N   7,H   3)          107.2772         0.301363   
     39. A(C   0,N   7,H   3)          109.2883         0.337842   
     40. A(C  13,C   8,H  16)          108.2518         0.323568   
     41. A(C   4,C   8,H  16)          108.9235         0.322915   
     42. A(C  11,C   8,H  16)          108.5202         0.323847   
     43. A(C  11,C   8,C  13)          110.0665         0.364487   
     44. A(C   4,C   8,C  13)          109.0236         0.363394   
     45. A(C   4,C   8,C  11)          111.9754         0.363720   
     46. A(H  14,C  11,H  15)          108.8896         0.291843   
     47. A(H  12,C  11,H  15)          108.3933         0.291609   
     48. A(C   8,C  11,H  15)          110.3787         0.325387   
     49. A(H  12,C  11,H  14)          107.9783         0.291855   
     50. A(C   8,C  11,H  14)          111.0499         0.325675   
     51. A(C   8,C  11,H  12)          110.0742         0.325402   
     52. A(H   6,C  13,H  18)          108.4066         0.291627   
     53. A(C   8,C  13,H  17)          110.5293         0.325171   
     54. A(H   6,C  13,H  17)          108.3309         0.291684   
     55. A(H   6,C  13,C   8)          110.8017         0.325145   
     56. A(H  17,C  13,H  18)          108.4054         0.291649   
     57. A(C   8,C  13,H  18)          110.2906         0.325105   
     58. A(C   1,O  19,H  20)          110.6712         0.373082   
     59. D(O  19,C   1,C   0,H   5)     22.3909         0.010993   
     60. D(O  21,C   1,C   0,H   5)   -156.4886         0.010993   
     61. D(O  21,C   1,C   0,C   4)     83.1572         0.010993   
     62. D(O  19,C   1,C   0,N   7)    142.1560         0.010993   
     63. D(O  19,C   1,C   0,C   4)    -97.9633         0.010993   
     64. D(C   8,C   4,C   0,C   1)     60.4377         0.010557   
     65. D(C   8,C   4,C   0,H   5)    -59.0387         0.010557   
     66. D(H   9,C   4,C   0,H   5)     63.3565         0.010557   
     67. D(H   9,C   4,C   0,N   7)    -55.2356         0.010557   
     68. D(C   8,C   4,C   0,N   7)   -177.6308         0.010557   
     69. D(H   9,C   4,C   0,C   1)   -177.1671         0.010557   
     70. D(H   2,N   7,C   0,H   5)     57.7392         0.016830   
     71. D(H   2,N   7,C   0,C   4)    177.4223         0.016830   
     72. D(H   3,N   7,C   0,C   1)     55.6618         0.016830   
     73. D(H   2,N   7,C   0,C   1)    -62.2055         0.016830   
     74. D(H   3,N   7,C   0,C   4)    -64.7105         0.016830   
     75. D(C  13,C   8,C   4,H  10)    -56.4484         0.011022   
     76. D(C  13,C   8,C   4,H   9)     61.4125         0.011022   
     77. D(C  13,C   8,C   4,C   0)   -177.6545         0.011022   
     78. D(C  11,C   8,C   4,H  10)   -178.4875         0.011022   
     79. D(C  11,C   8,C   4,H   9)    -60.6266         0.011022   
     80. D(C  11,C   8,C   4,C   0)     60.3064         0.011022   
     81. D(H  14,C  11,C   8,H  16)     52.7283         0.011394   
     82. D(H  14,C  11,C   8,C  13)    171.0233         0.011394   
     83. D(H  14,C  11,C   8,C   4)    -67.5360         0.011394   
     84. D(H  12,C  11,C   8,H  16)    -66.7940         0.011394   
     85. D(H  12,C  11,C   8,C  13)     51.5010         0.011394   
     86. D(H  12,C  11,C   8,C   4)    172.9416         0.011394   
     87. D(H   6,C  13,C   8,H  16)    -60.7678         0.011281   
     88. D(H   6,C  13,C   8,C  11)   -179.2279         0.011281   
     89. D(H   6,C  13,C   8,C   4)     57.5864         0.011281   
     90. D(H  17,C  13,C   8,H  16)     59.3322         0.011281   
     91. D(H  17,C  13,C   8,C  11)    -59.1279         0.011281   
     92. D(H  17,C  13,C   8,C   4)    177.6864         0.011281   
     93. D(H  20,O  19,C   1,O  21)     -1.7258         0.034084   
     94. D(H  20,O  19,C   1,C   0)    179.3711         0.034084   
    -----------------------------------------------------------------

Number of atoms                         .... 22
Number of degrees of freedom            .... 94


         *************************************************************
         *                GEOMETRY OPTIMIZATION CYCLE   1            *
         *************************************************************
---------------------------------
CARTESIAN COORDINATES (ANGSTROEM)
---------------------------------
  C     -9.637146    6.580267   -2.100048
  C     -8.394936    6.785190   -1.244018
  H     -9.782802    8.492515   -2.806180
  H     -8.862134    7.506702   -3.730698
  C     -9.599680    5.172208   -2.717253
  H    -10.522195    6.692714   -1.468986
  H     -8.597121    2.678457   -3.109649
  N     -9.713594    7.550983   -3.178303
  C     -9.575354    4.016410   -1.712619
  H    -10.475986    5.082302   -3.361180
  H     -8.711671    5.112350   -3.351492
  C    -10.809471    4.014694   -0.813689
  H    -10.823225    3.116655   -0.200198
  C     -9.480278    2.695461   -2.475206
  H    -10.809707    4.874407   -0.149676
  H    -11.715896    4.033694   -1.414714
  H     -8.685120    4.113029   -1.081338
  H     -9.420254    1.858973   -1.782980
  H    -10.357441    2.558809   -3.103800
  O     -8.618653    6.571805    0.058032
  H     -7.804555    6.701512    0.571544
  O     -7.321972    7.123671   -1.670960

----------------------------
CARTESIAN COORDINATES (A.U.)
----------------------------
  NO LB      ZA    FRAG     MASS         X           Y           Z
   0 C     6.0000    0    12.011  -18.211567   12.434902   -3.968515
   1 C     6.0000    0    12.011  -15.864131   12.822150   -2.350853
   2 H     1.0000    0     1.008  -18.486816   16.048527   -5.302912
   3 H     1.0000    0     1.008  -16.747007   14.185612   -7.049997
   4 C     6.0000    0    12.011  -18.140766    9.774056   -5.134864
   5 H     1.0000    0     1.008  -19.884067   12.647397   -2.775982
   6 H     1.0000    0     1.008  -16.246204    5.061551   -5.876385
   7 N     7.0000    0    14.007  -18.356033   14.269289   -6.006122
   8 C     6.0000    0    12.011  -18.094796    7.589916   -3.236381
   9 H     1.0000    0     1.008  -19.796744    9.604160   -6.351709
  10 H     1.0000    0     1.008  -16.462672    9.660942   -6.333402
  11 C     6.0000    0    12.011  -20.426940    7.586673   -1.537649
  12 H     1.0000    0     1.008  -20.452932    5.889624   -0.378319
  13 C     6.0000    0    12.011  -17.915130    5.093683   -4.677461
  14 H     1.0000    0     1.008  -20.427385    9.211294   -0.282847
  15 H     1.0000    0     1.008  -22.139834    7.622578   -2.673422
  16 H     1.0000    0     1.008  -16.412499    7.772498   -2.043433
  17 H     1.0000    0     1.008  -17.801700    3.512950   -3.369343
  18 H     1.0000    0     1.008  -19.572728    4.835449   -5.865333
  19 O     8.0000    0    15.999  -16.286894   12.418912    0.109664
  20 H     1.0000    0     1.008  -14.748471   12.664023    1.080061
  21 O     8.0000    0    15.999  -13.836522   13.461787   -3.157658

--------------------------------
INTERNAL COORDINATES (ANGSTROEM)
--------------------------------
 C      0   0   0     0.000000000000     0.00000000     0.00000000
 C      1   0   0     1.522453919214     0.00000000     0.00000000
 H      1   2   0     2.043656370255    97.26650597     0.00000000
 H      3   1   2     1.635294141440    65.86705013    89.45388834
 C      1   2   3     1.537847710258   109.20966055   144.37349499
 H      1   2   3     1.092791981867   108.80014368   264.72772261
 H      5   1   2     2.716227526080   155.17322591     5.02722871
 N      3   1   2     1.014764877100    41.72681047   124.06597867
 C      5   1   2     1.531583922884   115.34580159    60.43773075
 H      5   1   2     1.091162647438   107.02082011   182.83294680
 H      5   1   2     1.092887076398   107.62924953   298.46455596
 C      9   5   1     1.526801945126   111.97538131    60.30639235
 H     12   9   5     1.087674475209   110.07421634   172.94162203
 C      7   5   1     1.087554504953    66.52429313   104.02217026
 H     12   9   5     1.086286541145   111.04986210   292.46395353
 H     12   9   5     1.087748965103   110.37871664    53.32930285
 H      9   5   1     1.095611997915   108.92349503   300.27738749
 H     14   7   5     1.087424471872   108.33091950   209.21480967
 H     14   7   5     1.087759317091   108.40661612    91.77552585
 O      2   1   3     1.338250943237   112.90463378   117.66319329
 H     20   2   1     0.971223436956   110.67115518   179.37108159
 O      2   1   3     1.203371068225   124.46336003   298.78368042

---------------------------
INTERNAL COORDINATES (A.U.)
---------------------------
 C      0   0   0     0.000000000000     0.00000000     0.00000000
 C      1   0   0     2.877020958830     0.00000000     0.00000000
 H      1   2   0     3.861950851626    97.26650597     0.00000000
 H      3   1   2     3.090258075727    65.86705013    89.45388834
 C      1   2   3     2.906111008066   109.20966055   144.37349499
 H      1   2   3     2.065077567073   108.80014368   264.72772261
 H      5   1   2     5.132926141709   155.17322591     5.02722871
 N      3   1   2     1.917627708042    41.72681047   124.06597867
 C      5   1   2     2.894274165368   115.34580159    60.43773075
 H      5   1   2     2.061998571222   107.02082011   182.83294680
 H      5   1   2     2.065257269695   107.62924953   298.46455596
 C      9   5   1     2.885237537026   111.97538131    60.30639235
 H     12   9   5     2.055406881002   110.07421634   172.94162203
 C      7   5   1     2.055180170073    66.52429313   104.02217026
 H     12   9   5     2.052784065730   111.04986210   292.46395353
 H     12   9   5     2.055547646501   110.37871664    53.32930285
 H      9   5   1     2.070406625098   108.92349503   300.27738749
 H     14   7   5     2.054934443162   108.33091950   209.21480967
 H     14   7   5     2.055567208924   108.40661612    91.77552585
 O      2   1   3     2.528927781180   112.90463378   117.66319329
 H     20   2   1     1.835346310693   110.67115518   179.37108159
 O      2   1   3     2.274041756430   124.46336003   298.78368042

---------------------
BASIS SET INFORMATION
---------------------
There are 4 groups of distinct atoms

 Group   1 Type C   : 10s4p1d contracted to 3s2p1d pattern {631/31/1}
 Group   2 Type H   : 4s1p contracted to 2s1p pattern {31/1}
 Group   3 Type N   : 10s4p1d contracted to 3s2p1d pattern {631/31/1}
 Group   4 Type O   : 10s4p1d contracted to 3s2p1d pattern {631/31/1}

Atom   0C    basis set group =>   1
Atom   1C    basis set group =>   1
Atom   2H    basis set group =>   2
Atom   3H    basis set group =>   2
Atom   4C    basis set group =>   1
Atom   5H    basis set group =>   2
Atom   6H    basis set group =>   2
Atom   7N    basis set group =>   3
Atom   8C    basis set group =>   1
Atom   9H    basis set group =>   2
Atom  10H    basis set group =>   2
Atom  11C    basis set group =>   1
Atom  12H    basis set group =>   2
Atom  13C    basis set group =>   1
Atom  14H    basis set group =>   2
Atom  15H    basis set group =>   2
Atom  16H    basis set group =>   2
Atom  17H    basis set group =>   2
Atom  18H    basis set group =>   2
Atom  19O    basis set group =>   4
Atom  20H    basis set group =>   2
Atom  21O    basis set group =>   4
------------------------------------------------------------------------------
                             ORCA STARTUP CALCULATIONS
------------------------------------------------------------------------------
------------------------------------------------------------------------------
                   ___                                                        
                  /   \      - P O W E R E D   B Y -                         
                 /     \                                                     
                 |  |  |   _    _      __       _____    __    __             
                 |  |  |  | |  | |    /  \     |  _  \  |  |  /  |          
                  \  \/   | |  | |   /    \    | | | |  |  | /  /          
                 / \  \   | |__| |  /  /\  \   | |_| |  |  |/  /          
                |  |  |   |  __  | /  /__\  \  |    /   |      \           
                |  |  |   | |  | | |   __   |  |    \   |  |\   \          
                \     /   | |  | | |  |  |  |  | |\  \  |  | \   \       
                 \___/    |_|  |_| |__|  |__|  |_| \__\ |__|  \__/        
                                                                              
                      - O R C A' S   B I G   F R I E N D -                    
                                      &                                       
                       - I N T E G R A L  F E E D E R -                       
                                                                              
 v1 FN, 2020, v2 2021, v3 2022-2024                                           
------------------------------------------------------------------------------


----------------------
SHARK INTEGRAL PACKAGE
----------------------

Number of atoms                             ...     22
Number of basis functions                   ...    191
Number of shells                            ...     93
Maximum angular momentum                    ...      2
Integral batch strategy                     ... SHARK/LIBINT Hybrid
RI-J (if used) integral strategy            ... SPLIT-RIJ (Revised 2003 algorithm where possible)
Printlevel                                  ...      1
Contraction scheme used                     ... SEGMENTED contraction
Prescreening option                         ... SCHWARTZ
   Thresh                                   ... 2.500e-11
   Tcut                                     ... 2.500e-12
   Tpresel                                  ... 2.500e-12 
Coulomb Range Separation                    ... NOT USED
Exchange Range Separation                   ... NOT USED
Multipole approximations                    ... NOT USED
Finite Nucleus Model                        ... NOT USED
CABS basis                                  ... NOT available
Auxiliary Coulomb fitting basis             ... NOT available
Auxiliary J/K fitting basis                 ... NOT available
Auxiliary Correlation fitting basis         ... NOT available
Auxiliary 'external' fitting basis          ... NOT available

Checking pre-screening integrals            ... done (  0.0 sec) Dimension = 93
   => SHARK Basis and OBASIS are compatible. Storing Pre-screening
Shell pair information
Shell pair cut-off parameter TPreSel        ...   2.5e-12
Total number of shell pairs                 ...      4371
Shell pairs after pre-screening             ...      3940
Total number of primitive shell pairs       ...     20328
Primitive shell pairs kept                  ...     12269
          la=0 lb=0:   1300 shell pairs
          la=1 lb=0:   1474 shell pairs
          la=1 lb=1:    442 shell pairs
          la=2 lb=0:    431 shell pairs
          la=2 lb=1:    250 shell pairs
          la=2 lb=2:     43 shell pairs

Checking whether 4 symmetric matrices of dimension 191 fit in memory
:Max Core in MB      =   4096.00
 MB in use           =      6.47
 MB left             =   4089.53
 MB needed           =      0.56
 Data fit in memory  = YES
Calculating Nuclear repulsion               ... done (  0.0 sec) ENN=    490.398721631573 Eh

Diagonalization of the overlap matrix:
Smallest eigenvalue                        ... 3.001e-03
Time for diagonalization                   ...    0.002 sec
Threshold for overlap eigenvalues          ... 1.000e-07
Number of eigenvalues below threshold      ... 0
Time for construction of square roots      ...    0.001 sec
Total time needed                          ...    0.003 sec

-------------------
DFT GRID GENERATION
-------------------

General Integration Accuracy     IntAcc      ... 4.388
Radial Grid Type                 RadialGrid  ... OptM3 with GC (2021)
Angular Grid (max. ang.)         AngularGrid ... 4 (Lebedev-302)
Angular grid pruning method      GridPruning ... 4 (adaptive)
Weight generation scheme         WeightScheme... mBecke (2022)
Basis function cutoff            BFCut       ... 1.0000e-11
Integration weight cutoff        WCut        ... 1.0000e-14
Partially contracted basis set               ... off
Rotationally invariant grid construction     ... off
Angular grids for H and He will be reduced by one unit

Total number of grid points                  ...    95566
Total number of batches                      ...     1505
Average number of points per batch           ...       63
Average number of grid points per atom       ...     4344
Grids setup in   0.4 sec
Initializing property integral containers    ... done (  0.0 sec)

SHARK setup successfully completed in   0.4 seconds

Maximum memory used throughout the entire STARTUP-calculation: 38.5 MB
-------------------------------------------------------------------------------
                                 ORCA GUESS
                   Start orbitals & Density for SCF / CASSCF
-------------------------------------------------------------------------------

------------
SCF SETTINGS
------------
Hamiltonian:
 Ab initio Hamiltonian  Method          .... Hartree-Fock(GTOs)


General Settings:
 Integral files         IntName         .... 2
 Hartree-Fock type      HFTyp           .... RHF
 Total Charge           Charge          ....    0
 Multiplicity           Mult            ....    1
 Number of Electrons    NEL             ....   72
 Basis Dimension        Dim             ....  191
 Nuclear Repulsion      ENuc            ....    490.3987216316 Eh

Convergence Acceleration:
 AO-DIIS                CNVDIIS         .... on
   Start iteration      DIISMaxIt       ....    12
   Startup error        DIISStart       ....  0.200000
   # of expansion vecs  DIISMaxEq       ....     5
   Bias factor          DIISBfac        ....   1.050
   Max. coefficient     DIISMaxC        ....  10.000
 MO-DIIS                CNVKDIIS        .... off
 Trust-Rad. Augm. Hess. CNVTRAH         .... auto
   Auto Start mean grad. ratio tolernc. ....  1.125000
   Auto Start start iteration           ....    50
   Auto Start num. interpolation iter.  ....    10
   Max. Number of Micro iterations      ....    24
   Max. Number of Macro iterations      .... Maxiter - #DIIS iter
   Number of Davidson start vectors     ....     2
   Converg. threshold    (grad. norm)   ....   1.000e-05
   Grad. Scal. Fac. for Micro threshold ....   0.100
   Minimum threshold for Micro iter.    ....   1.000e-02
   NR start threshold (gradient norm)   ....   1.000e-04
   Initial trust radius                 ....   0.400
   Minimum AH scaling param. (alpha)    ....   1.000
   Maximum AH scaling param. (alpha)    .... 1000.000
   Quad. conv. algorithm                .... NR
   White noise on init. David. guess    .... on
   Maximum white noise                  ....   0.010
   Pseudo random numbers                .... off
   Inactive MOs                         .... canonical
   Orbital update algorithm             .... Taylor
   Preconditioner                       .... Diag
   Full preconditioner red. dimension   ....   250
 SOSCF                 CNVSOSCF           .... on
   Start iteration     SOSCFMaxIt         ....   150
   Startup grad/error  SOSCFStart         ....  0.003300
   Hessian update      SOSCFHessUp        .... L-BFGS
   Autom. constraints  SOSCFAutoConstrain .... off
 Level Shifting         CNVShift        .... on
   Level shift para.    LevelShift      ....    0.2500
   Turn off err/grad.   ShiftErr        ....    0.0010
 Zerner damping         CNVZerner       .... off
 Static damping         CNVDamp         .... on
   Fraction old density DampFac         ....    0.7000
   Max. Damping (<1)    DampMax         ....    0.9800
   Min. Damping (>=0)   DampMin         ....    0.0000
   Turn off err/grad.   DampErr         ....    0.1000

SCF Procedure:
 Maximum # iterations   MaxIter         ....   125
 SCF integral mode      SCFMode         .... Direct
   Integral package                     .... SHARK and LIBINT hybrid scheme
 Reset frequency        DirectResetFreq ....    20
 Integral Threshold     Thresh          ....  2.500e-11 Eh
 Primitive CutOff       TCut            ....  2.500e-12 Eh

Convergence Tolerance:
 Convergence Check Mode ConvCheckMode   .... Total+1el-Energy
 Convergence forced     ConvForced      .... 1
 Energy Change          TolE            ....  1.000e-08 Eh
 1-El. energy change                    ....  1.000e-05 Eh
 Orbital Gradient       TolG            ....  1.000e-05
 Orbital Rotation angle TolX            ....  1.000e-05
 DIIS Error             TolErr          ....  5.000e-07

------------------------------
INITIAL GUESS: MODEL POTENTIAL
------------------------------
Loading Hartree-Fock densities                     ... done
Calculating cut-offs                               ... done
Initializing the effective Hamiltonian             ... done
Setting up the integral package (SHARK)            ... done
Starting the Coulomb interaction                   ... done (   0.1 sec)
Making the grid                                    ... done (   0.1 sec)
Mapping shells                                     ... done
Starting the XC term evaluation                    ... done (   0.0 sec)
Transforming the Hamiltonian                       ... done (   0.0 sec)
Diagonalizing the Hamiltonian                      ... done (   0.0 sec)
Back transforming the eigenvectors                 ... done (   0.0 sec)
Now organizing SCF variables                       ... done
                      ------------------
                      INITIAL GUESS DONE (   0.2 sec)
                      ------------------
             **** ENERGY FILE WAS UPDATED (2.en.tmp) ****
Finished Guess after   0.3 sec
Maximum memory used throughout the entire GUESS-calculation: 11.7 MB

-------------------------------------------------------------------------------------------
                                      ORCA LEAN-SCF
                              memory conserving SCF solver
-------------------------------------------------------------------------------------------

----------------------------------------D-I-I-S--------------------------------------------
Iteration    Energy (Eh)           Delta-E    RMSDP     MaxDP     DIISErr   Damp  Time(sec)
-------------------------------------------------------------------------------------------
               ***  Starting incremental Fock matrix formation  ***
    1    -438.5407408874560815     0.00e+00  2.48e-03  6.48e-02  2.53e-01  0.700   2.0
    2    -438.7042185719925556    -1.63e-01  1.88e-03  4.65e-02  1.56e-01  0.700   1.9
                               ***Turning on AO-DIIS***
    3    -438.8003107433038394    -9.61e-02  1.02e-03  2.28e-02  8.89e-02  0.700   1.9
    4    -438.8606207401608117    -6.03e-02  2.30e-03  4.79e-02  6.38e-02  0.000   1.8
    5    -438.9936386004704900    -1.33e-01  2.70e-04  7.31e-03  6.71e-03  0.000   1.9
    6    -438.9941241407068446    -4.86e-04  1.31e-04  3.52e-03  3.87e-03  0.000   1.8
                              *** Initializing SOSCF ***
---------------------------------------S-O-S-C-F--------------------------------------
Iteration    Energy (Eh)           Delta-E    RMSDP     MaxDP     MaxGrad    Time(sec)
--------------------------------------------------------------------------------------
    7    -438.9942310986493794    -1.07e-04  7.24e-05  2.62e-03  2.48e-03     1.7
               *** Restarting incremental Fock matrix formation ***
    8    -438.9942629769922178    -3.19e-05  3.67e-05  9.41e-04  6.38e-04     2.0
    9    -438.9942705157363889    -7.54e-06  3.89e-05  1.50e-03  4.28e-04     1.6
   10    -438.9942733045066916    -2.79e-06  7.03e-06  2.78e-04  1.11e-04     1.6
   11    -438.9942735067512558    -2.02e-07  2.59e-06  8.84e-05  4.48e-05     1.5
   12    -438.9942735490818677    -4.23e-08  7.94e-07  3.24e-05  9.82e-06     1.3
   13    -438.9942735517963683    -2.71e-09  3.70e-07  1.10e-05  2.11e-06     1.2
                 **** Energy Check signals convergence ****

               *****************************************************
               *                     SUCCESS                       *
               *           SCF CONVERGED AFTER  13 CYCLES          *
               *****************************************************

             **** ENERGY FILE WAS UPDATED (2.en.tmp) ****

----------------
TOTAL SCF ENERGY
----------------

Total Energy       :       -438.99427355321711 Eh          -11945.64149 eV

Components:
Nuclear Repulsion  :        490.39872163157349 Eh           13344.42763 eV
Electronic Energy  :       -929.39299518479061 Eh          -25290.06912 eV
One Electron Energy:      -1571.30820972875904 Eh          -42757.47013 eV
Two Electron Energy:        641.91521454396843 Eh           17467.40101 eV

Virial components:
Potential Energy   :       -877.61138784020545 Eh          -23881.01995 eV
Kinetic Energy     :        438.61711428698834 Eh           11935.37846 eV
Virial Ratio       :          2.00085988269482

---------------
SCF CONVERGENCE
---------------

  Last Energy change         ...    2.7145e-09  Tolerance :   1.0000e-08
  Last MAX-Density change    ...    1.1020e-05  Tolerance :   1.0000e-07
  Last RMS-Density change    ...    3.6960e-07  Tolerance :   5.0000e-09
  Last DIIS Error            ...    2.4825e-03  Tolerance :   5.0000e-07
  Last Orbital Gradient      ...    2.1135e-06  Tolerance :   1.0000e-05
  Last Orbital Rotation      ...    8.6213e-06  Tolerance :   1.0000e-05


----------------
ORBITAL ENERGIES
----------------

  NO   OCC          E(Eh)            E(eV) 
   0   2.0000     -20.619882      -561.0955 
   1   2.0000     -20.553867      -559.2992 
   2   2.0000     -15.548082      -423.0848 
   3   2.0000     -11.382348      -309.7294 
   4   2.0000     -11.270849      -306.6954 
   5   2.0000     -11.227594      -305.5184 
   6   2.0000     -11.225877      -305.4716 
   7   2.0000     -11.211350      -305.0763 
   8   2.0000     -11.209778      -305.0336 
   9   2.0000      -1.469440       -39.9855 
  10   2.0000      -1.362678       -37.0803 
  11   2.0000      -1.197115       -32.5751 
  12   2.0000      -1.093916       -29.7670 
  13   2.0000      -0.992317       -27.0023 
  14   2.0000      -0.932938       -25.3865 
  15   2.0000      -0.904899       -24.6235 
  16   2.0000      -0.810429       -22.0529 
  17   2.0000      -0.765481       -20.8298 
  18   2.0000      -0.714222       -19.4350 
  19   2.0000      -0.697178       -18.9712 
  20   2.0000      -0.665763       -18.1163 
  21   2.0000      -0.638829       -17.3834 
  22   2.0000      -0.622986       -16.9523 
  23   2.0000      -0.602403       -16.3922 
  24   2.0000      -0.595818       -16.2130 
  25   2.0000      -0.580582       -15.7984 
  26   2.0000      -0.545476       -14.8432 
  27   2.0000      -0.536821       -14.6076 
  28   2.0000      -0.532247       -14.4832 
  29   2.0000      -0.507319       -13.8049 
  30   2.0000      -0.483698       -13.1621 
  31   2.0000      -0.468794       -12.7565 
  32   2.0000      -0.462944       -12.5974 
  33   2.0000      -0.455525       -12.3955 
  34   2.0000      -0.451082       -12.2746 
  35   2.0000      -0.398364       -10.8400 
  36   0.0000       0.180349         4.9075 
  37   0.0000       0.215967         5.8768 
  38   0.0000       0.233164         6.3447 
  39   0.0000       0.244457         6.6520 
  40   0.0000       0.263423         7.1681 
  41   0.0000       0.279837         7.6148 
  42   0.0000       0.294891         8.0244 
  43   0.0000       0.300800         8.1852 
  44   0.0000       0.319092         8.6829 
  45   0.0000       0.326803         8.8928 
  46   0.0000       0.334150         9.0927 
*Only the first 10 virtual orbitals were printed.

                    ********************************
                    * MULLIKEN POPULATION ANALYSIS *
                    ********************************

-----------------------
MULLIKEN ATOMIC CHARGES
-----------------------
   0 C :   -0.034320
   1 C :    0.790389
   2 H :    0.270622
   3 H :    0.283878
   4 C :   -0.200986
   5 H :    0.158701
   6 H :    0.113106
   7 N :   -0.682256
   8 C :   -0.149210
   9 H :    0.141107
  10 H :    0.124851
  11 C :   -0.326173
  12 H :    0.112435
  13 C :   -0.317955
  14 H :    0.125850
  15 H :    0.108520
  16 H :    0.117158
  17 H :    0.112715
  18 H :    0.110115
  19 O :   -0.637457
  20 H :    0.370417
  21 O :   -0.591508
Sum of atomic charges:   -0.0000000

--------------------------------
MULLIKEN REDUCED ORBITAL CHARGES
--------------------------------
  0 C s       :     3.197594  s :     3.197594
      pz      :     0.911935  p :     2.766490
      px      :     0.944005
      py      :     0.910549
      dz2     :     0.007389  d :     0.070236
      dxz     :     0.023052
      dyz     :     0.016897
      dx2y2   :     0.016925
      dxy     :     0.005974

  1 C s       :     2.959650  s :     2.959650
      pz      :     0.646270  p :     2.103947
      px      :     0.824248
      py      :     0.633429
      dz2     :     0.041175  d :     0.146014
      dxz     :     0.043064
      dyz     :     0.020946
      dx2y2   :     0.020984
      dxy     :     0.019844

  2 H s       :     0.703322  s :     0.703322
      pz      :     0.005645  p :     0.026056
      px      :     0.006406
      py      :     0.014005

  3 H s       :     0.690035  s :     0.690035
      pz      :     0.009127  p :     0.026087
      px      :     0.013276
      py      :     0.003683

  4 C s       :     3.236055  s :     3.236055
      pz      :     0.977498  p :     2.916672
      px      :     1.087280
      py      :     0.851894
      dz2     :     0.002878  d :     0.048259
      dxz     :     0.015555
      dyz     :     0.012320
      dx2y2   :     0.014841
      dxy     :     0.002666

  5 H s       :     0.829148  s :     0.829148
      pz      :     0.003963  p :     0.012151
      px      :     0.006805
      py      :     0.001384

  6 H s       :     0.874238  s :     0.874238
      pz      :     0.004318  p :     0.012655
      px      :     0.006554
      py      :     0.001783

  7 N s       :     3.607533  s :     3.607533
      pz      :     1.327719  p :     4.039991
      px      :     1.568113
      py      :     1.144159
      dz2     :     0.004395  d :     0.034733
      dxz     :     0.006283
      dyz     :     0.011236
      dx2y2   :     0.011840
      dxy     :     0.000979

  8 C s       :     3.235220  s :     3.235220
      pz      :     0.950968  p :     2.858153
      px      :     0.988957
      py      :     0.918229
      dz2     :     0.004083  d :     0.055836
      dxz     :     0.016564
      dyz     :     0.015451
      dx2y2   :     0.015514
      dxy     :     0.004224

  9 H s       :     0.846435  s :     0.846435
      pz      :     0.004389  p :     0.012459
      px      :     0.006464
      py      :     0.001605

 10 H s       :     0.862706  s :     0.862706
      pz      :     0.004196  p :     0.012444
      px      :     0.006563
      py      :     0.001684

 11 C s       :     3.248381  s :     3.248381
      pz      :     1.008590  p :     3.035743
      px      :     0.963755
      py      :     1.063398
      dz2     :     0.001266  d :     0.042049
      dxz     :     0.012545
      dyz     :     0.013890
      dx2y2   :     0.013163
      dxy     :     0.001186

 12 H s       :     0.874892  s :     0.874892
      pz      :     0.004121  p :     0.012673
      px      :     0.001837
      py      :     0.006715

 13 C s       :     3.248362  s :     3.248362
      pz      :     1.021800  p :     3.027300
      px      :     1.047108
      py      :     0.958392
      dz2     :     0.001212  d :     0.042293
      dxz     :     0.013679
      dyz     :     0.012709
      dx2y2   :     0.012852
      dxy     :     0.001841

 14 H s       :     0.861297  s :     0.861297
      pz      :     0.004658  p :     0.012854
      px      :     0.001843
      py      :     0.006352

 15 H s       :     0.878902  s :     0.878902
      pz      :     0.003913  p :     0.012578
      px      :     0.006830
      py      :     0.001835

 16 H s       :     0.870583  s :     0.870583
      pz      :     0.004192  p :     0.012259
      px      :     0.006370
      py      :     0.001697

 17 H s       :     0.874635  s :     0.874635
      pz      :     0.004675  p :     0.012650
      px      :     0.001884
      py      :     0.006091

 18 H s       :     0.877276  s :     0.877276
      pz      :     0.004239  p :     0.012609
      px      :     0.006461
      py      :     0.001910

 19 O s       :     3.838723  s :     3.838723
      pz      :     1.330520  p :     4.773452
      px      :     1.608028
      py      :     1.834904
      dz2     :     0.007392  d :     0.025282
      dxz     :     0.007674
      dyz     :     0.003903
      dx2y2   :     0.004488
      dxy     :     0.001825

 20 H s       :     0.588184  s :     0.588184
      pz      :     0.011918  p :     0.041398
      px      :     0.020541
      py      :     0.008939

 21 O s       :     3.874481  s :     3.874481
      pz      :     1.777980  p :     4.684399
      px      :     1.437240
      py      :     1.469179
      dz2     :     0.003646  d :     0.032627
      dxz     :     0.007995
      dyz     :     0.002215
      dx2y2   :     0.008296
      dxy     :     0.010475



                     *******************************
                     * LOEWDIN POPULATION ANALYSIS *
                     *******************************

----------------------
LOEWDIN ATOMIC CHARGES
----------------------
   0 C :   -0.024967
   1 C :    0.230068
   2 H :    0.128195
   3 H :    0.135016
   4 C :   -0.099663
   5 H :    0.077968
   6 H :    0.063108
   7 N :   -0.274494
   8 C :   -0.071642
   9 H :    0.074088
  10 H :    0.066789
  11 C :   -0.181684
  12 H :    0.064275
  13 C :   -0.176116
  14 H :    0.066581
  15 H :    0.061477
  16 H :    0.058520
  17 H :    0.063197
  18 H :    0.062335
  19 O :   -0.209520
  20 H :    0.200198
  21 O :   -0.313729

-------------------------------
LOEWDIN REDUCED ORBITAL CHARGES
-------------------------------
  0 C s       :     2.868520  s :     2.868520
      pz      :     0.992647  p :     3.016238
      px      :     1.020872
      py      :     1.002718
      dz2     :     0.014832  d :     0.140210
      dxz     :     0.045714
      dyz     :     0.034057
      dx2y2   :     0.033727
      dxy     :     0.011881

  1 C s       :     2.850843  s :     2.850843
      pz      :     0.886650  p :     2.602669
      px      :     1.033725
      py      :     0.682294
      dz2     :     0.091924  d :     0.316420
      dxz     :     0.096938
      dyz     :     0.044655
      dx2y2   :     0.043498
      dxy     :     0.039405

  2 H s       :     0.790517  s :     0.790517
      pz      :     0.018961  p :     0.081289
      px      :     0.020267
      py      :     0.042061

  3 H s       :     0.782897  s :     0.782897
      pz      :     0.028256  p :     0.082088
      px      :     0.042338
      py      :     0.011494

  4 C s       :     2.894105  s :     2.894105
      pz      :     1.044055  p :     3.113891
      px      :     1.084018
      py      :     0.985819
      dz2     :     0.006351  d :     0.091667
      dxz     :     0.026196
      dyz     :     0.025071
      dx2y2   :     0.028273
      dxy     :     0.005777

  5 H s       :     0.881867  s :     0.881867
      pz      :     0.012187  p :     0.040165
      px      :     0.021329
      py      :     0.006649

  6 H s       :     0.897239  s :     0.897239
      pz      :     0.013493  p :     0.039653
      px      :     0.019595
      py      :     0.006565

  7 N s       :     3.189090  s :     3.189090
      pz      :     1.335059  p :     4.023990
      px      :     1.526298
      py      :     1.162633
      dz2     :     0.009225  d :     0.061413
      dxz     :     0.011325
      dyz     :     0.019903
      dx2y2   :     0.018836
      dxy     :     0.002123

  8 C s       :     2.872262  s :     2.872262
      pz      :     1.030353  p :     3.089345
      px      :     1.044159
      py      :     1.014832
      dz2     :     0.008483  d :     0.110035
      dxz     :     0.031143
      dyz     :     0.031449
      dx2y2   :     0.030229
      dxy     :     0.008731

  9 H s       :     0.885533  s :     0.885533
      pz      :     0.014389  p :     0.040379
      px      :     0.019694
      py      :     0.006296

 10 H s       :     0.893275  s :     0.893275
      pz      :     0.013846  p :     0.039936
      px      :     0.019601
      py      :     0.006488

 11 C s       :     2.906860  s :     2.906860
      pz      :     1.065387  p :     3.199904
      px      :     1.048318
      py      :     1.086198
      dz2     :     0.002922  d :     0.074920
      dxz     :     0.022958
      dyz     :     0.023256
      dx2y2   :     0.022946
      dxy     :     0.002838

 12 H s       :     0.896078  s :     0.896078
      pz      :     0.013085  p :     0.039647
      px      :     0.006560
      py      :     0.020003

 13 C s       :     2.908184  s :     2.908184
      pz      :     1.070386  p :     3.192611
      px      :     1.082616
      py      :     1.039608
      dz2     :     0.002630  d :     0.075321
      dxz     :     0.022762
      dyz     :     0.023169
      dx2y2   :     0.022691
      dxy     :     0.004069

 14 H s       :     0.892795  s :     0.892795
      pz      :     0.014579  p :     0.040624
      px      :     0.006651
      py      :     0.019393

 15 H s       :     0.898771  s :     0.898771
      pz      :     0.012301  p :     0.039752
      px      :     0.020560
      py      :     0.006891

 16 H s       :     0.902396  s :     0.902396
      pz      :     0.013106  p :     0.039083
      px      :     0.019079
      py      :     0.006898

 17 H s       :     0.897175  s :     0.897175
      pz      :     0.014334  p :     0.039628
      px      :     0.006788
      py      :     0.018505

 18 H s       :     0.897932  s :     0.897932
      pz      :     0.013407  p :     0.039734
      px      :     0.019335
      py      :     0.006991

 19 O s       :     3.459566  s :     3.459566
      pz      :     1.339844  p :     4.701728
      px      :     1.577097
      py      :     1.784787
      dz2     :     0.017564  d :     0.048225
      dxz     :     0.016842
      dyz     :     0.006673
      dx2y2   :     0.005600
      dxy     :     0.001546

 20 H s       :     0.679696  s :     0.679696
      pz      :     0.033211  p :     0.120106
      px      :     0.059137
      py      :     0.027758

 21 O s       :     3.547857  s :     3.547857
      pz      :     1.747934  p :     4.708691
      px      :     1.509474
      py      :     1.451283
      dz2     :     0.007931  d :     0.057181
      dxz     :     0.015589
      dyz     :     0.003373
      dx2y2   :     0.015895
      dxy     :     0.014392



                      *****************************
                      * MAYER POPULATION ANALYSIS *
                      *****************************

  NA   - Mulliken gross atomic population
  ZA   - Total nuclear charge
  QA   - Mulliken gross atomic charge
  VA   - Mayer's total valence
  BVA  - Mayer's bonded valence
  FA   - Mayer's free valence

  ATOM       NA         ZA         QA         VA         BVA        FA
  0 C      6.0343     6.0000    -0.0343     3.7580     3.7580    -0.0000
  1 C      5.2096     6.0000     0.7904     3.6524     3.6524    -0.0000
  2 H      0.7294     1.0000     0.2706     0.9057     0.9057    -0.0000
  3 H      0.7161     1.0000     0.2839     0.9057     0.9057     0.0000
  4 C      6.2010     6.0000    -0.2010     3.7649     3.7649     0.0000
  5 H      0.8413     1.0000     0.1587     0.9407     0.9407     0.0000
  6 H      0.8869     1.0000     0.1131     0.9534     0.9534    -0.0000
  7 N      7.6823     7.0000    -0.6823     2.7703     2.7703     0.0000
  8 C      6.1492     6.0000    -0.1492     3.7968     3.7968    -0.0000
  9 H      0.8589     1.0000     0.1411     0.9515     0.9515    -0.0000
 10 H      0.8751     1.0000     0.1249     0.9531     0.9531    -0.0000
 11 C      6.3262     6.0000    -0.3262     3.8318     3.8318     0.0000
 12 H      0.8876     1.0000     0.1124     0.9549     0.9549     0.0000
 13 C      6.3180     6.0000    -0.3180     3.8437     3.8437    -0.0000
 14 H      0.8742     1.0000     0.1258     0.9540     0.9540     0.0000
 15 H      0.8915     1.0000     0.1085     0.9531     0.9531     0.0000
 16 H      0.8828     1.0000     0.1172     0.9469     0.9469     0.0000
 17 H      0.8873     1.0000     0.1127     0.9541     0.9541    -0.0000
 18 H      0.8899     1.0000     0.1101     0.9530     0.9530    -0.0000
 19 O      8.6375     8.0000    -0.6375     1.8250     1.8250    -0.0000
 20 H      0.6296     1.0000     0.3704     0.8732     0.8732     0.0000
 21 O      8.5915     8.0000    -0.5915     1.8909     1.8909     0.0000

  Mayer bond orders larger than 0.100000
B(  0-C ,  1-C ) :   0.8968 B(  0-C ,  4-C ) :   0.9696 B(  0-C ,  5-H ) :   0.9589 
B(  0-C ,  7-N ) :   0.9932 B(  1-C , 19-O ) :   0.9591 B(  1-C , 21-O ) :   1.8276 
B(  2-H ,  7-N ) :   0.9111 B(  3-H ,  7-N ) :   0.8965 B(  4-C ,  8-C ) :   0.9666 
B(  4-C ,  9-H ) :   0.9633 B(  4-C , 10-H ) :   0.9659 B(  6-H , 13-C ) :   0.9762 
B(  8-C , 11-C ) :   0.9702 B(  8-C , 13-C ) :   0.9808 B(  8-C , 16-H ) :   0.9676 
B( 11-C , 12-H ) :   0.9772 B( 11-C , 14-H ) :   0.9723 B( 11-C , 15-H ) :   0.9716 
B( 13-C , 17-H ) :   0.9767 B( 13-C , 18-H ) :   0.9722 B( 19-O , 20-H ) :   0.8406 


-------
TIMINGS
-------

Total SCF time: 0 days 0 hours 0 min 23 sec 

Total time                  ....      23.390 sec
Sum of individual times     ....      22.259 sec  ( 95.2%)

SCF preparation             ....       0.017 sec  (  0.1%)
Fock matrix formation       ....      22.181 sec  ( 94.8%)
  Startup                   ....       0.001 sec  (  0.0% of F)
  Coulomb+Exchange Fock     ....      23.286 sec  (105.0% of F)
Diagonalization             ....       0.000 sec  (  0.0%)
Density matrix formation    ....       0.005 sec  (  0.0%)
Total Energy calculation    ....       0.001 sec  (  0.0%)
Population analysis         ....       0.003 sec  (  0.0%)
Orbital Transformation      ....       0.006 sec  (  0.0%)
Orbital Orthonormalization  ....       0.000 sec  (  0.0%)
DIIS solution               ....       0.031 sec  (  0.1%)
SOSCF solution              ....       0.015 sec  (  0.1%)
Finished LeanSCF after  23.4 sec

Maximum memory used throughout the entire LEANSCF-calculation: 15.3 MB

------------------------------------------------------------------------------
                                ORCA  MP2 
------------------------------------------------------------------------------

Freezing NCore=18 chemical core electrons
MP2 will be done in the AO integral direct mode
The Q1-step will be done using symmetric double matrices
Dimension of the basis                    ...  191
Memory devoted for MP2                    ... 4096 MB   
Memory needed for all in one shot         ...  722 MB
Number of MOs that can be treated together...  152      
MP2 density construction                  ... relaxed
The MP2 gradient is requested => amplitudes will be stored on disk
Total number of MOs              ...   27
Number of MOs treated per batch  ...   27 
Number of batches necessary      ...    1 
OPERATORS   0/  0 PASS   0
-----------------------------------------------
 MP2 CORRELATION ENERGY   :     -1.369360440 Eh
-----------------------------------------------


---------------------
MP2 DENSITY FORMATION
---------------------

Completing the external part of the density      ... done
Storing the unrelaxed density                    ... done

Calculating G(D)                                 ... done
Completing the Lagrangian                        ... done
Solving the Z-vector equations                   ... 
-------------------
SHARK CP-SCF DRIVER
-------------------

Dimension of the orbital basis          ...    191
Dimension of the CPSCF-problem          ...   5580
Number of operators                     ...      1
Max. number of iterations               ...    128
Convergence Tolerance                   ... 1.0e-04
Number of perturbations                 ...      1
Perturbation type                       ... REAL

----------------------------
POPLE LINEAR EQUATION SOLVER
----------------------------

  ITERATION   0:   ||err||_max =   1.2737e-01 (   2.6 sec)
  ITERATION   1:   ||err||_max =   3.3077e-02 (   2.6 sec)
  ITERATION   2:   ||err||_max =   1.4301e-02 (   2.7 sec)
  ITERATION   3:   ||err||_max =   3.4789e-03 (   2.6 sec)
  ITERATION   4:   ||err||_max =   1.3109e-03 (   2.7 sec)
  ITERATION   5:   ||err||_max =   3.1806e-04 (   2.7 sec)
  ITERATION   6:   ||err||_max =   1.0515e-04 (   2.7 sec)
  ITERATION   7:   ||err||_max =   4.2897e-05 (   2.7 sec)
                                                 ... done
Finalizing the relaxed density                   ... done
Transforming P to the AO basis                   ... done
Storing the relaxed density                      ... done

------------------------------------
ENERGY WEIGHTED DENSITY FINALIZATION
------------------------------------

Gathering the parts of the W-matrix              ...                                                      done
Forming the Z-density                            ... done
Transforming Z to the AO basis                   ... done
Calculating G(Z)                                 ... done
Finalizing the W-matrix                          ...                                                      done
Transforming W to the AO basis and storing       ... done

                *********************************************
                * UNRELAXED MP2 DENSITY POPULATION ANALYSIS *
                *********************************************

------------------------------------------------------------------------------
                           ORCA POPULATION ANALYSIS
------------------------------------------------------------------------------
Input electron density              ... 2.pmp2ur
BaseName (.gbw .S,...)              ... 2

                    ********************************
                    * MULLIKEN POPULATION ANALYSIS *
                    ********************************

-----------------------
MULLIKEN ATOMIC CHARGES
-----------------------
   0 C :   -0.039510
   1 C :    0.756958
   2 H :    0.269495
   3 H :    0.282225
   4 C :   -0.202890
   5 H :    0.159321
   6 H :    0.114041
   7 N :   -0.674543
   8 C :   -0.151452
   9 H :    0.141705
  10 H :    0.125546
  11 C :   -0.328019
  12 H :    0.113333
  13 C :   -0.320029
  14 H :    0.126510
  15 H :    0.109455
  16 H :    0.117973
  17 H :    0.113668
  18 H :    0.111022
  19 O :   -0.623511
  20 H :    0.367129
  21 O :   -0.568426
Sum of atomic charges:   -0.0000000

--------------------------------
MULLIKEN REDUCED ORBITAL CHARGES
--------------------------------
  0 C s       :     3.194448  s :     3.194448
      pz      :     0.910365  p :     2.759232
      px      :     0.941678
      py      :     0.907189
      dz2     :     0.010849  d :     0.085830
      dxz     :     0.025705
      dyz     :     0.019845
      dx2y2   :     0.019775
      dxy     :     0.009655
  1 C s       :     2.961297  s :     2.961297
      pz      :     0.652021  p :     2.125161
      px      :     0.823639
      py      :     0.649501
      dz2     :     0.043164  d :     0.156584
      dxz     :     0.045276
      dyz     :     0.023161
      dx2y2   :     0.022988
      dxy     :     0.021994
  2 H s       :     0.702407  s :     0.702407
      pz      :     0.006460  p :     0.028098
      px      :     0.007266
      py      :     0.014372
  3 H s       :     0.689677  s :     0.689677
      pz      :     0.009778  p :     0.028099
      px      :     0.013780
      py      :     0.004541
  4 C s       :     3.232781  s :     3.232781
      pz      :     0.973790  p :     2.905482
      px      :     1.082437
      py      :     0.849254
      dz2     :     0.006480  d :     0.064628
      dxz     :     0.018616
      dyz     :     0.015315
      dx2y2   :     0.017836
      dxy     :     0.006381
  5 H s       :     0.825780  s :     0.825780
      pz      :     0.004890  p :     0.014899
      px      :     0.007558
      py      :     0.002451
  6 H s       :     0.870533  s :     0.870533
      pz      :     0.005239  p :     0.015425
      px      :     0.007340
      py      :     0.002846
  7 N s       :     3.602864  s :     3.602864
      pz      :     1.319259  p :     4.015062
      px      :     1.557474
      py      :     1.138329
      dz2     :     0.008902  d :     0.056618
      dxz     :     0.010840
      dyz     :     0.015162
      dx2y2   :     0.016135
      dxy     :     0.005579
  8 C s       :     3.231483  s :     3.231483
      pz      :     0.947461  p :     2.847639
      px      :     0.985236
      py      :     0.914943
      dz2     :     0.007879  d :     0.072330
      dxz     :     0.019541
      dyz     :     0.018391
      dx2y2   :     0.018497
      dxy     :     0.008022
  9 H s       :     0.843065  s :     0.843065
      pz      :     0.005313  p :     0.015231
      px      :     0.007241
      py      :     0.002677
 10 H s       :     0.859180  s :     0.859180
      pz      :     0.005145  p :     0.015275
      px      :     0.007354
      py      :     0.002775
 11 C s       :     3.245219  s :     3.245219
      pz      :     1.005045  p :     3.024977
      px      :     0.960378
      py      :     1.059554
      dz2     :     0.004796  d :     0.057823
      dxz     :     0.015403
      dyz     :     0.016873
      dx2y2   :     0.016059
      dxy     :     0.004692
 12 H s       :     0.871223  s :     0.871223
      pz      :     0.005059  p :     0.015444
      px      :     0.002890
      py      :     0.007494
 13 C s       :     3.245207  s :     3.245207
      pz      :     1.018251  p :     3.016869
      px      :     1.043642
      py      :     0.954976
      dz2     :     0.004667  d :     0.057953
      dxz     :     0.016586
      dyz     :     0.015609
      dx2y2   :     0.015754
      dxy     :     0.005337
 14 H s       :     0.857854  s :     0.857854
      pz      :     0.005572  p :     0.015637
      px      :     0.002909
      py      :     0.007155
 15 H s       :     0.875173  s :     0.875173
      pz      :     0.004843  p :     0.015372
      px      :     0.007645
      py      :     0.002884
 16 H s       :     0.866863  s :     0.866863
      pz      :     0.005147  p :     0.015164
      px      :     0.007213
      py      :     0.002804
 17 H s       :     0.870918  s :     0.870918
      pz      :     0.005554  p :     0.015414
      px      :     0.002921
      py      :     0.006939
 18 H s       :     0.873582  s :     0.873582
      pz      :     0.005170  p :     0.015396
      px      :     0.007252
      py      :     0.002974
 19 O s       :     3.834470  s :     3.834470
      pz      :     1.321952  p :     4.740724
      px      :     1.597747
      py      :     1.821025
      dz2     :     0.011835  d :     0.048318
      dxz     :     0.012344
      dyz     :     0.008778
      dx2y2   :     0.008992
      dxy     :     0.006369
 20 H s       :     0.590318  s :     0.590318
      pz      :     0.012265  p :     0.042553
      px      :     0.020717
      py      :     0.009571
 21 O s       :     3.869928  s :     3.869928
      pz      :     1.763755  p :     4.644222
      px      :     1.427139
      py      :     1.453329
      dz2     :     0.008160  d :     0.054276
      dxz     :     0.012466
      dyz     :     0.006627
      dx2y2   :     0.012411
      dxy     :     0.014611


                     *******************************
                     * LOEWDIN POPULATION ANALYSIS *
                     *******************************

----------------------
LOEWDIN ATOMIC CHARGES
----------------------
   0 C :   -0.028392
   1 C :    0.205559
   2 H :    0.127543
   3 H :    0.134094
   4 C :   -0.100100
   5 H :    0.078123
   6 H :    0.063332
   7 N :   -0.270066
   8 C :   -0.073101
   9 H :    0.074265
  10 H :    0.066991
  11 C :   -0.181643
  12 H :    0.064464
  13 C :   -0.176217
  14 H :    0.066667
  15 H :    0.061693
  16 H :    0.058795
  17 H :    0.063422
  18 H :    0.062534
  19 O :   -0.200639
  20 H :    0.197784
  21 O :   -0.295108

-------------------------------
LOEWDIN REDUCED ORBITAL CHARGES
-------------------------------
  0 C s       :     2.868794  s :     2.868794
      pz      :     0.988212  p :     3.001324
      px      :     1.016119
      py      :     0.996993
      dz2     :     0.018497  d :     0.158275
      dxz     :     0.048874
      dyz     :     0.037845
      dx2y2   :     0.037331
      dxy     :     0.015728
  1 C s       :     2.851562  s :     2.851562
      pz      :     0.887913  p :     2.614941
      px      :     1.030625
      py      :     0.696403
      dz2     :     0.094066  d :     0.327938
      dxz     :     0.098990
      dyz     :     0.046738
      dx2y2   :     0.046341
      dxy     :     0.041802
  2 H s       :     0.787413  s :     0.787413
      pz      :     0.020098  p :     0.085044
      px      :     0.021156
      py      :     0.043790
  3 H s       :     0.780150  s :     0.780150
      pz      :     0.029341  p :     0.085756
      px      :     0.043903
      py      :     0.012513
  4 C s       :     2.893748  s :     2.893748
      pz      :     1.037985  p :     3.095746
      px      :     1.077936
      py      :     0.979825
      dz2     :     0.010155  d :     0.110606
      dxz     :     0.029984
      dyz     :     0.028744
      dx2y2   :     0.032045
      dxy     :     0.009677
  5 H s       :     0.876872  s :     0.876872
      pz      :     0.013833  p :     0.045005
      px      :     0.023117
      py      :     0.008055
  6 H s       :     0.892401  s :     0.892401
      pz      :     0.015050  p :     0.044267
      px      :     0.021398
      py      :     0.007819
  7 N s       :     3.187205  s :     3.187205
      pz      :     1.326090  p :     3.997575
      px      :     1.515658
      py      :     1.155828
      dz2     :     0.013874  d :     0.085285
      dxz     :     0.016319
      dyz     :     0.024573
      dx2y2   :     0.023818
      dxy     :     0.006701
  8 C s       :     2.872376  s :     2.872376
      pz      :     1.024445  p :     3.071617
      px      :     1.038336
      py      :     1.008836
      dz2     :     0.012397  d :     0.129107
      dxz     :     0.034880
      dyz     :     0.035184
      dx2y2   :     0.033998
      dxy     :     0.012648
  9 H s       :     0.880555  s :     0.880555
      pz      :     0.016016  p :     0.045180
      px      :     0.021498
      py      :     0.007666
 10 H s       :     0.888185  s :     0.888185
      pz      :     0.015493  p :     0.044824
      px      :     0.021463
      py      :     0.007869
 11 C s       :     2.906052  s :     2.906052
      pz      :     1.059625  p :     3.182684
      px      :     1.042432
      py      :     1.080628
      dz2     :     0.006521  d :     0.092906
      dxz     :     0.026515
      dyz     :     0.026919
      dx2y2   :     0.026522
      dxy     :     0.006429
 12 H s       :     0.891265  s :     0.891265
      pz      :     0.014632  p :     0.044271
      px      :     0.007806
      py      :     0.021833
 13 C s       :     2.907357  s :     2.907357
      pz      :     1.064821  p :     3.175684
      px      :     1.077278
      py      :     1.033586
      dz2     :     0.006183  d :     0.093176
      dxz     :     0.026313
      dyz     :     0.026748
      dx2y2   :     0.026265
      dxy     :     0.007667
 14 H s       :     0.888065  s :     0.888065
      pz      :     0.016177  p :     0.045269
      px      :     0.007914
      py      :     0.021178
 15 H s       :     0.893903  s :     0.893903
      pz      :     0.013795  p :     0.044404
      px      :     0.022467
      py      :     0.008143
 16 H s       :     0.897058  s :     0.897058
      pz      :     0.014776  p :     0.044147
      px      :     0.021042
      py      :     0.008329
 17 H s       :     0.892332  s :     0.892332
      pz      :     0.015896  p :     0.044246
      px      :     0.008024
      py      :     0.020327
 18 H s       :     0.893104  s :     0.893104
      pz      :     0.014962  p :     0.044362
      px      :     0.021132
      py      :     0.008268
 19 O s       :     3.457618  s :     3.457618
      pz      :     1.331671  p :     4.670251
      px      :     1.567135
      py      :     1.771444
      dz2     :     0.022766  d :     0.072771
      dxz     :     0.021897
      dyz     :     0.011711
      dx2y2   :     0.010344
      dxy     :     0.006053
 20 H s       :     0.679633  s :     0.679633
      pz      :     0.033946  p :     0.122584
      px      :     0.060237
      py      :     0.028400
 21 O s       :     3.544885  s :     3.544885
      pz      :     1.734167  p :     4.668829
      px      :     1.498529
      py      :     1.436133
      dz2     :     0.012711  d :     0.081393
      dxz     :     0.020708
      dyz     :     0.007915
      dx2y2   :     0.020841
      dxy     :     0.019219


                      *****************************
                      * MAYER POPULATION ANALYSIS *
                      *****************************

  NA   - Mulliken gross atomic population
  ZA   - Total nuclear charge
  QA   - Mulliken gross atomic charge
  VA   - Mayer's total valence
  BVA  - Mayer's bonded valence
  FA   - Mayer's free valence

  ATOM       NA         ZA         QA         VA         BVA        FA
  0 C      6.0395     6.0000    -0.0395     3.8337     3.5550     0.2787
  1 C      5.2430     6.0000     0.7570     3.7178     3.4269     0.2910
  2 H      0.7305     1.0000     0.2695     0.9128     0.8669     0.0460
  3 H      0.7178     1.0000     0.2822     0.9131     0.8674     0.0457
  4 C      6.2029     6.0000    -0.2029     3.8486     3.5760     0.2726
  5 H      0.8407     1.0000     0.1593     0.9492     0.9015     0.0477
  6 H      0.8860     1.0000     0.1140     0.9627     0.9156     0.0471
  7 N      7.6745     7.0000    -0.6745     2.9631     2.6365     0.3265
  8 C      6.1515     6.0000    -0.1515     3.8765     3.5933     0.2832
  9 H      0.8583     1.0000     0.1417     0.9606     0.9116     0.0490
 10 H      0.8745     1.0000     0.1255     0.9627     0.9127     0.0500
 11 C      6.3280     6.0000    -0.3280     3.9189     3.6671     0.2518
 12 H      0.8867     1.0000     0.1133     0.9642     0.9167     0.0474
 13 C      6.3200     6.0000    -0.3200     3.9299     3.6789     0.2510
 14 H      0.8735     1.0000     0.1265     0.9631     0.9160     0.0471
 15 H      0.8905     1.0000     0.1095     0.9626     0.9151     0.0475
 16 H      0.8820     1.0000     0.1180     0.9568     0.9061     0.0507
 17 H      0.8863     1.0000     0.1137     0.9634     0.9163     0.0472
 18 H      0.8890     1.0000     0.1110     0.9625     0.9152     0.0473
 19 O      8.6235     8.0000    -0.6235     2.0849     1.7270     0.3580
 20 H      0.6329     1.0000     0.3671     0.8803     0.8356     0.0447
 21 O      8.5684     8.0000    -0.5684     2.1570     1.7586     0.3984

  Mayer bond orders larger than 0.100000
B(  0-C ,  1-C ) :   0.8480 B(  0-C ,  4-C ) :   0.9151 B(  0-C ,  5-H ) :   0.9215 
B(  0-C ,  7-N ) :   0.9361 B(  1-C , 19-O ) :   0.9059 B(  1-C , 21-O ) :   1.7081 
B(  2-H ,  7-N ) :   0.8739 B(  3-H ,  7-N ) :   0.8598 B(  4-C ,  8-C ) :   0.9119 
B(  4-C ,  9-H ) :   0.9251 B(  4-C , 10-H ) :   0.9271 B(  6-H , 13-C ) :   0.9394 
B(  8-C , 11-C ) :   0.9173 B(  8-C , 13-C ) :   0.9273 B(  8-C , 16-H ) :   0.9283 
B( 11-C , 12-H ) :   0.9401 B( 11-C , 14-H ) :   0.9352 B( 11-C , 15-H ) :   0.9344 
B( 13-C , 17-H ) :   0.9398 B( 13-C , 18-H ) :   0.9353 B( 19-O , 20-H ) :   0.8055 



                *******************************************
                * RELAXED MP2 DENSITY POPULATION ANALYSIS *
                *******************************************

------------------------------------------------------------------------------
                           ORCA POPULATION ANALYSIS
------------------------------------------------------------------------------
Input electron density              ... 2.pmp2re
BaseName (.gbw .S,...)              ... 2

                    ********************************
                    * MULLIKEN POPULATION ANALYSIS *
                    ********************************

-----------------------
MULLIKEN ATOMIC CHARGES
-----------------------
   0 C :   -0.054037
[...]
   5 H :    0.079119
   6 H :    0.067669
   7 N :   -0.258152
   8 C :   -0.076584
   9 H :    0.076870
  10 H :    0.069533
  11 C :   -0.195234
  12 H :    0.068435
  13 C :   -0.189459
  14 H :    0.070532
  15 H :    0.065600
  16 H :    0.062524
  17 H :    0.067634
  18 H :    0.066607
  19 O :   -0.175206
  20 H :    0.187469
  21 O :   -0.231378

-------------------------------
LOEWDIN REDUCED ORBITAL CHARGES
-------------------------------
  0 C s       :     2.872114  s :     2.872114
      pz      :     0.993206  p :     3.024572
      px      :     1.033463
      py      :     0.997903
      dz2     :     0.019694  d :     0.150942
      dxz     :     0.044966
      dyz     :     0.035283
      dx2y2   :     0.035018
      dxy     :     0.015981
  1 C s       :     2.863520  s :     2.863520
      pz      :     0.890833  p :     2.687877
      px      :     1.020349
      py      :     0.776695
      dz2     :     0.085805  d :     0.304685
      dxz     :     0.095730
      dyz     :     0.042131
      dx2y2   :     0.043500
      dxy     :     0.037519
  2 H s       :     0.789113  s :     0.789113
      pz      :     0.021255  p :     0.083560
      px      :     0.020219
      py      :     0.042085
  3 H s       :     0.785219  s :     0.785219
      pz      :     0.026133  p :     0.084303
      px      :     0.045302
      py      :     0.012868
  4 C s       :     2.896829  s :     2.896829
      pz      :     1.040472  p :     3.108516
      px      :     1.082803
      py      :     0.985241
      dz2     :     0.010293  d :     0.104733
      dxz     :     0.028669
      dyz     :     0.025804
      dx2y2   :     0.029746
      dxy     :     0.010221
  5 H s       :     0.875778  s :     0.875778
      pz      :     0.013637  p :     0.045103
      px      :     0.023014
      py      :     0.008452
  6 H s       :     0.888568  s :     0.888568
      pz      :     0.015210  p :     0.043763
      px      :     0.020633
      py      :     0.007919
  7 N s       :     3.202723  s :     3.202723
      pz      :     1.356533  p :     3.972218
      px      :     1.456875
      py      :     1.158810
      dz2     :     0.014543  d :     0.083210
      dxz     :     0.014168
      dyz     :     0.023258
      dx2y2   :     0.024544
      dxy     :     0.006698
  8 C s       :     2.871778  s :     2.871778
      pz      :     1.027437  p :     3.082034
      px      :     1.043429
      py      :     1.011167
      dz2     :     0.012954  d :     0.122772
      dxz     :     0.032685
      dyz     :     0.032521
      dx2y2   :     0.031640
      dxy     :     0.012971
  9 H s       :     0.878407  s :     0.878407
      pz      :     0.015786  p :     0.044723
      px      :     0.021045
      py      :     0.007892
 10 H s       :     0.886190  s :     0.886190
      pz      :     0.015690  p :     0.044277
      px      :     0.020558
      py      :     0.008029
 11 C s       :     2.908767  s :     2.908767
      pz      :     1.063652  p :     3.199542
      px      :     1.048139
      py      :     1.087752
      dz2     :     0.006782  d :     0.086925
      dxz     :     0.023949
      dyz     :     0.025382
      dx2y2   :     0.024398
      dxy     :     0.006414
 12 H s       :     0.887772  s :     0.887772
      pz      :     0.015132  p :     0.043792
      px      :     0.007969
      py      :     0.020692
 13 C s       :     2.910025  s :     2.910025
      pz      :     1.070570  p :     3.192156
      px      :     1.084685
      py      :     1.036901
      dz2     :     0.006239  d :     0.087278
      dxz     :     0.024638
      dyz     :     0.024459
      dx2y2   :     0.024126
      dxy     :     0.007816
 14 H s       :     0.884516  s :     0.884516
      pz      :     0.015409  p :     0.044952
      px      :     0.008103
      py      :     0.021440
 15 H s       :     0.890662  s :     0.890662
      pz      :     0.013215  p :     0.043738
      px      :     0.022335
      py      :     0.008188
 16 H s       :     0.893319  s :     0.893319
      pz      :     0.014528  p :     0.044156
      px      :     0.021010
      py      :     0.008619
 17 H s       :     0.888603  s :     0.888603
      pz      :     0.015502  p :     0.043764
      px      :     0.008127
      py      :     0.020135
 18 H s       :     0.889635  s :     0.889635
      pz      :     0.014585  p :     0.043758
      px      :     0.020797
      py      :     0.008376
 19 O s       :     3.483764  s :     3.483764
      pz      :     1.345082  p :     4.619142
      px      :     1.533214
      py      :     1.740846
      dz2     :     0.021878  d :     0.072300
      dxz     :     0.020690
      dyz     :     0.012144
      dx2y2   :     0.011439
      dxy     :     0.006149
 20 H s       :     0.692461  s :     0.692461
      pz      :     0.030401  p :     0.120070
      px      :     0.061760
      py      :     0.027910
 21 O s       :     3.561461  s :     3.561461
      pz      :     1.709621  p :     4.591159
      px      :     1.488009
      py      :     1.393529
      dz2     :     0.012273  d :     0.078757
      dxz     :     0.019953
      dyz     :     0.007397
      dx2y2   :     0.020643
      dxy     :     0.018490


                      *****************************
                      * MAYER POPULATION ANALYSIS *
                      *****************************

  NA   - Mulliken gross atomic population
  ZA   - Total nuclear charge
  QA   - Mulliken gross atomic charge
  VA   - Mayer's total valence
  BVA  - Mayer's bonded valence
  FA   - Mayer's free valence

  ATOM       NA         ZA         QA         VA         BVA        FA
  0 C      6.0590     6.0000    -0.0590     3.9043     3.6295     0.2748
  1 C      5.4321     6.0000     0.5679     3.9259     3.6469     0.2790
  2 H      0.7455     1.0000     0.2545     0.9185     0.8722     0.0464
  3 H      0.7372     1.0000     0.2628     0.9266     0.8809     0.0458
  4 C      6.1861     6.0000    -0.1861     3.9040     3.6345     0.2695
  5 H      0.8581     1.0000     0.1419     0.9552     0.9077     0.0475
  6 H      0.8898     1.0000     0.1102     0.9648     0.9175     0.0472
  7 N      7.6071     7.0000    -0.6071     3.0293     2.7062     0.3231
  8 C      6.1117     6.0000    -0.1117     3.9461     3.6671     0.2790
  9 H      0.8699     1.0000     0.1301     0.9640     0.9148     0.0492
 10 H      0.8871     1.0000     0.1129     0.9658     0.9156     0.0502
 11 C      6.3282     6.0000    -0.3282     3.9489     3.6982     0.2507
 12 H      0.8916     1.0000     0.1084     0.9658     0.9182     0.0476
 13 C      6.3215     6.0000    -0.3215     3.9566     3.7068     0.2498
 14 H      0.8775     1.0000     0.1225     0.9677     0.9206     0.0470
 15 H      0.8944     1.0000     0.1056     0.9654     0.9176     0.0478
 16 H      0.8937     1.0000     0.1063     0.9612     0.9105     0.0507
 17 H      0.8909     1.0000     0.1091     0.9651     0.9178     0.0473
 18 H      0.8918     1.0000     0.1082     0.9653     0.9179     0.0475
 19 O      8.5229     8.0000    -0.5229     2.2065     1.8526     0.3539
 20 H      0.6595     1.0000     0.3405     0.9036     0.8594     0.0442
 21 O      8.4444     8.0000    -0.4444     2.3146     1.9248     0.3898

  Mayer bond orders larger than 0.100000
B(  0-C ,  1-C ) :   0.8603 B(  0-C ,  4-C ) :   0.9203 B(  0-C ,  5-H ) :   0.9085 
B(  0-C ,  7-N ) :   0.9664 B(  1-C , 19-O ) :   0.9764 B(  1-C , 21-O ) :   1.8042 
B(  2-H ,  7-N ) :   0.8741 B(  3-H ,  7-N ) :   0.8615 B(  4-C ,  8-C ) :   0.9298 
B(  4-C ,  9-H ) :   0.9149 B(  4-C , 10-H ) :   0.9173 B(  6-H , 13-C ) :   0.9336 
B(  8-C , 11-C ) :   0.9379 B(  8-C , 13-C ) :   0.9399 B(  8-C , 16-H ) :   0.9170 
B( 11-C , 12-H ) :   0.9336 B( 11-C , 14-H ) :   0.9277 B( 11-C , 15-H ) :   0.9305 
B( 13-C , 17-H ) :   0.9336 B( 13-C , 18-H ) :   0.9316 B( 19-O , 20-H ) :   0.8123 



----------------------------------
MP2 DERIVATIVE INTEGRAL GENERATION
----------------------------------

Input SCF Electron Density              ... 2.scfp
Input Correlated Electron Density       ... 2.pmp2re
Input Energy Weighted Density           ... 2.wmp2.tmp
Input Wavefunction Amplitudes           ... 2.mp2tsaa.tmp

Nuclear repulsion gradient              ... done (  0.0 sec)
HCore & Overlap gradient  (SHARK)       ... done (  0.1 sec)
Analytic two-electron gradient terms    ... 
  Batch handling in the gradient evaluation:
  General contraction                   ... not used
  Memory available                      ... 4081.8 MB
  Memory per occupied orbital in Q2     ...    7.5 MB
  Memory per occupied orbital in Q3     ...    0.0 MB
  Total memory requirement per |i>      ...    7.6 MB
  Number of orbitals treated per batch  ...     27
  Number of batches to be done          ...      1
done ( 21.6 sec)

---------------------------------------
MP2 TOTAL ENERGY:     -440.365749968 Eh
---------------------------------------

The final MP2 gradient
  0:   0.00000501  -0.00001440   0.00006227
  1:  -0.00006944  -0.00004299  -0.00003995
  2:   0.00000287  -0.00000312   0.00000279
  3:  -0.00000390  -0.00000944   0.00000057
  4:  -0.00000666  -0.00000156  -0.00004559
  5:  -0.00000394   0.00000037  -0.00001637
  6:   0.00000394  -0.00000046  -0.00000259
  7:   0.00000034   0.00003670  -0.00002355
  8:   0.00002360   0.00002164   0.00003188
  9:   0.00000103  -0.00000055   0.00000540
 10:   0.00000346   0.00000158   0.00000646
 11:  -0.00000640  -0.00002339  -0.00000827
 12:   0.00000574   0.00000384   0.00000527
 13:  -0.00001088  -0.00000885  -0.00000417
 14:  -0.00000385   0.00000649   0.00000388
 15:  -0.00000223   0.00000898   0.00000031
 16:  -0.00000589  -0.00000242  -0.00000576
 17:   0.00000103  -0.00000212   0.00000148
 18:   0.00000054  -0.00000205  -0.00000295
 19:   0.00000165  -0.00000016   0.00004385
 20:   0.00000319   0.00000785  -0.00001488
 21:   0.00006079   0.00002404  -0.00000009

-----------------------------------
NORM OF THE MP2 GRADIENT:  0.000163
-----------------------------------

Maximum memory used throughout the entire MP2-calculation: 780.0 MB

-------------------------   --------------------
FINAL SINGLE POINT ENERGY      -440.365749967977
-------------------------   --------------------

                                *** OPTIMIZATION RUN DONE ***


------------------------------------------------------------------------------
                              ORCA PROPERTY CALCULATIONS
------------------------------------------------------------------------------

GBWName                                 ... 2.gbw
Number of atoms                         ...     22
Number of basis functions               ...    191
Max core memory                         ...   4096 MB

Electric properties:
Dipole moment                           ... YES
Quadrupole moment                       ...  NO
Static polarizability (Dipole/Dipole)   ...  NO
Static polarizability (Dipole/Quad.)    ...  NO
Static polarizability (Quad./Quad.)     ...  NO
Static polarizability (Velocity)        ...  NO
Static hyperpolarizability              ...  NO

Atomic electric properties:
Dipole moment                           ...  NO
Quadrupole moment                       ...  NO
Static polarizability                   ...  NO

Choice of electric origin               ... Center of mass
Position of electric origin             ...   -17.431243    10.649370    -3.288082

General magnetic properties:
Magnetizability                         ...  NO

EPR properties:
g-Tensor (aka g-matrix)                 ...  NO
Zero-Field splitting spin-orbit         ...  NO
Zero-field splitting spin-spin          ...  NO
Hyperfine couplings                     ...  NO (   0 nuclei)
Quadrupole couplings                    ...  NO (   0 nuclei)
Contact density                         ...  NO (   0 nuclei)

NMR properties:
Chemical shifts                         ...  NO (   0 nuclei)
Spin-rotation constants                 ...  NO (   0 nuclei)
Spin-spin couplings                     ...  NO (   0 nuclei,    0 pairs)

Choice of magnetic origin               ... GIAO
Position of magnetic origin             ...     0.000000     0.000000     0.000000

Properties with geometric perturbations:
SCF Hessian                             ...  NO
IR spectrum                             ...  NO
VCD spectrum                            ...  NO
X-ray spectroscopy properties:
SCF XES/XAS/RIXS spectra                ...  NO

SCF SOC stabilization energy            ...  NO
Diagonal Born-Oppenheimer correction    ...  NO

-------------
DIPOLE MOMENT
-------------

Method             : SCF
Type of density    : Electron Density
Multiplicity       :   1
Irrep              :   0
Energy             :  -438.9918549822044724 Eh
Basis              : AO
                                X                 Y                 Z
Electronic contribution:      6.003471442       9.603214078       2.790751678
Nuclear contribution   :     -6.160952566      -9.723677509      -2.208754201
                        -----------------------------------------
Total Dipole Moment    :     -0.157481124      -0.120463431       0.581997477
                        -----------------------------------------
Magnitude (a.u.)       :      0.614843725
Magnitude (Debye)      :      1.562808550



--------------------
Rotational spectrum 
--------------------
 
Rotational constants in cm-1:             0.073617             0.035321             0.030961 
Rotational constants in MHz :          2206.986803          1058.910640           928.199267 

Dipole components along the rotational axes: 
x,y,z [a.u.] :     0.143455    -0.526879    -0.282581 
x,y,z [Debye]:     0.364634    -1.339220    -0.718264 

 

-------------
DIPOLE MOMENT
-------------

Method             : MP2
Type of density    : Electron Density
Multiplicity       :   1
Level              : Unrelaxed density
Irrep              :   0
Energy             :     0.0000000000000000 Eh
Basis              : AO
                                X                 Y                 Z
Electronic contribution:      6.034367103       9.613157663       2.782598511
Nuclear contribution   :     -6.160952566      -9.723677509      -2.208754201
                        -----------------------------------------
Total Dipole Moment    :     -0.126585463      -0.110519846       0.573844311
                        -----------------------------------------
Magnitude (a.u.)       :      0.597942981
Magnitude (Debye)      :      1.519850273



--------------------
Rotational spectrum 
--------------------
 
Rotational constants in cm-1:             0.073617             0.035321             0.030961 
Rotational constants in MHz :          2206.986803          1058.910640           928.199267 

Dipole components along the rotational axes: 
x,y,z [a.u.] :     0.123217    -0.526164    -0.255939 
x,y,z [Debye]:     0.313193    -1.337403    -0.650545 

 

-------------
DIPOLE MOMENT
-------------

Method             : MP2
Type of density    : Electron Density
Multiplicity       :   1
Level              : Relaxed density
Irrep              :   0
Energy             :     0.0000000000000000 Eh
Basis              : AO
                                X                 Y                 Z
Electronic contribution:      6.161500170       9.674174672       2.776322672
Nuclear contribution   :     -6.160952566      -9.723677509      -2.208754201
                        -----------------------------------------
Total Dipole Moment    :      0.000547604      -0.049502837       0.567568471
                        -----------------------------------------
Magnitude (a.u.)       :      0.569723442
Magnitude (Debye)      :      1.448121904



--------------------
Rotational spectrum 
--------------------
 
Rotational constants in cm-1:             0.073617             0.035321             0.030961 
Rotational constants in MHz :          2206.986803          1058.910640           928.199267 

Dipole components along the rotational axes: 
x,y,z [a.u.] :     0.020038    -0.545939    -0.161661 
x,y,z [Debye]:     0.050932    -1.387666    -0.410910 

 

Dipole moment calculation done in   0.0 sec 

Maximum memory used throughout the entire PROP-calculation: 10.4 MB

--------------------------------
SUGGESTED CITATIONS FOR THIS RUN
--------------------------------

Below you find a list of papers that are relevant to this ORCA run
We neither can nor want to force you to cite these papers, but we appreciate if you do
You receive ORCA, which is the product of decades of hard work by many enthusiastic individuals, for free
The only thing we kindly ask in return is that you cite our papers,
We deeply appreciate it, if you show your appreciation for ORCA by not just citing the generic ORCA reference.

Please note that relegating all ORCA citations to the supporting information does *not* help us.
SI sections are not indexed - citations you put there will not count into any citation statistics
But we need these citations in order to attract the funding resources that allow us to do what we are doing

Therefore, if you are a happy ORCA user, please consider citing a few of the papers listed below in the main body of your paper

In addition to the list printed below, the program has created the file 2.bibtex that contains the list in bibtex format
You can import this file easily into all common literature databanks and citation aid programs


List of essential papers. We consider these as the minimum necessary citations

  1. Neese, F.
     Software update: the ORCA program system, version 6.0
     WIRES Comput. Molec. Sci. 2025 15(1), e70019
     doi.org/10.1002/wcms.7019

List of papers to cite with high priority. The work reported in these papers was absolutely
necessary for this run to complete.
Our perspective: the developers of density functionals and basis sets usually get cited in chemistry papers
Good! But without the algorithms to do something with them, the functionals or basis sets would not do anything.
Hence, in our opinion, the algorithm design and method developments papers are equally worthy of getting cited

  1. Neese, F.
     The SHARK Integral Generation and Digestion System
     J. Comp. Chem. 2022 44(3), 381
     doi.org/10.1002/jcc.26942

List of suggested additional citations. These are papers that are important in the 'surrounding' of 
of this run, or papers that preceded the highly important papers. If you like your results we are grateful for a citation.

  1. Neese, F.
     The ORCA program system
     WIRES Comput. Molec. Sci. 2012 2(1), 73-78
     doi.org/10.1002/wcms.81
  2. Neese, F.
     Software update: the ORCA program system, version 4.0
     WIRES Comput. Molec. Sci. 2018 8(1), 1-6
     doi.org/10.1002/wcms.1327
  3. Neese, F.; Wennmohs, F.; Becker, U.; Riplinger, C.
     The ORCA quantum chemistry program package
     J. Chem. Phys. 2020 152(22), 224108
     doi.org/10.1063/5.0004608
  4. Neese, F.
     Software update: The ORCA program system—Version 5.0
     WIRES Comput. Molec. Sci. 2022 12(1), e1606
     doi.org/10.1002/wcms.1606

List of optional additional citations

  1. Neese, F.
     Approximate second-order SCF convergence for spin unrestricted wavefunctions
     Chem. Phys. Lett. 2000 325(1-3), 93-98
     doi.org/10.1016/s0009-2614(00)00662-x

Timings for individual modules:

Sum of individual times          ...      725.222 sec (=  12.087 min)
Startup calculation              ...        4.137 sec (=   0.069 min)   0.6 %
SCF iterations                   ...      131.693 sec (=   2.195 min)  18.2 %
Property calculations            ...        0.041 sec (=   0.001 min)   0.0 %
MP2 module                       ...      589.337 sec (=   9.822 min)  81.3 %
Geometry relaxation              ...        0.015 sec (=   0.000 min)   0.0 %
                             ****ORCA TERMINATED NORMALLY****
TOTAL RUN TIME: 0 days 0 hours 12 minutes 5 seconds 416 msec
