
                                 *****************
                                 * O   R   C   A *
                                 *****************

                                            #,                                       
                                            ###                                      
                                            ####                                     
                                            #####                                    
                                            ######                                   
                                           ########,                                 
                                     ,,################,,,,,                         
                               ,,#################################,,                 
                          ,,##########################################,,             
                       ,#########################################, ''#####,          
                    ,#############################################,,   '####,        
                  ,##################################################,,,,####,       
                ,###########''''           ''''###############################       
              ,#####''   ,,,,##########,,,,          '''####'''          '####       
            ,##' ,,,,###########################,,,                        '##       
           ' ,,###''''                  '''############,,,                           
         ,,##''                                '''############,,,,        ,,,,,,###''
      ,#''                                            '''#######################'''  
     '                                                          ''''####''''         
             ,#######,   #######,   ,#######,      ##                                
            ,#'     '#,  ##    ##  ,#'     '#,    #''#        ,####,    ,#,          
            ##       ##  ##   ,#'  ##            #'  '#       #'       ,# #          
            ##       ##  #######   ##           ,######,      #####,      #          
            '#,     ,#'  ##    ##  '#,     ,#' ,#      #,     #,   #      #          
             '#######'   ##     ##  '#######'  #'      '#     '####' #    #          



                #########################################################
                #                        -***-                          #
                #          Department of theory and spectroscopy        #
                #                                                       #
                #                      Frank Neese                      #
                #                                                       #
                #     Directorship, Architecture, Infrastructure        #
                #                    SHARK, DRIVERS                     #
                #        Core code/Algorithms in most modules           #
                #                                                       #
                #        Max Planck Institute fuer Kohlenforschung      #
                #                Kaiser Wilhelm Platz 1                 #
                #                 D-45470 Muelheim/Ruhr                 #
                #                      Germany                          #
                #                                                       #
                #                  All rights reserved                  #
                #                        -***-                          #
                #########################################################


                         Program Version 6.1.0  -  RELEASE   -
                                (GIT: $679e74b$)
                          ($2025-06-10 18:02:51 +0200$)


 With contributions from (in alphabetic order):
[Max-Planck-Institut fuer Kohlenforschung]                               
  Daniel Aravena         : Magnetic Suceptibility                        
  Michael Atanasov       : Ab Initio Ligand Field Theory (pilot matlab implementation)
  Alexander A. Auer      : GIAO ZORA, VPT2 properties, NMR spectrum      
  Ute Becker             : All parallelization in ORCA, NUMFREQ, NUMCALC 
  Giovanni Bistoni       : ED, misc. LED, open-shell LED, HFLD           
  Dmytro Bykov           : pre 5.0 version of the SCF Hessian            
  Marcos Casanova-Páez   : Triplet and SCS-CIS(D). UHF-(DLPNO)-IP/EA/STEOM-CCSD. UHF-CVS-IP/STEOM-CCSD   
  Vijay G. Chilkuri      : MRCI spin determinant printing, contributions to CSF-ICE 
  Pauline Colinet        : FMM embedding                                 
  Dipayan Datta          : RHF DLPNO-CCSD density                        
  Achintya Kumar Dutta   : EOM-CC, STEOM-CC                              
  Nicolas Foglia         : Exact transition moments, OPA infrastructure, MCD improvements    
  Dmitry Ganyushin       : Spin-Orbit,Spin-Spin,Magnetic field MRCI      
  Miquel Garcia-Rates    : C-PCM and meta-GGA Hessian, CCSD/C-PCM, Gaussian charge scheme 
  Tiago L. C. Gouveia    : GS-ROHF, GS-ROCIS                             
  Yang Guo               : DLPNO-NEVPT2, F12-NEVPT2, CIM, IAO-localization        
  Andreas Hansen         : Spin unrestricted coupled pair/coupled cluster methods 
  Ingolf Harden          : AUTO-CI MPn and infrastructure                
  Benjamin Helmich-Paris : MC-RPA, TRAH-(SCF,CASSCF), AVAS, COSX integrals, SCF dyn. polar., MC-PDFT, srDFT 
  Lee Huntington         : MR-EOM, pCC                                   
  Robert Izsak           : Overlap fitted RIJCOSX, COSX-SCS-MP3, EOM     
  Riya Kayal             : Wick's Theorem for AUTO-CI, AUTO-CI UHF-CCSDT 
  Emily Kempfer          : AUTO-CI RHF CISDT and CCSDT, approximate NEVPT4
  Christian Kollmar      : KDIIS, OOCD, Brueckner-CCSD(T), CCSD density, CASPT2, CASPT2-K, improved NEVPT2 
  Axel Koslowski         : Symmetry handling                             
  Simone Kossmann        : meta-GGA functionals, TD-DFT gradient, OOMP2, (MP2 Hessian; deprecated post 5.0) 
  Lucas Lang             : DCDCAS, Hyperfine gauge corrections, ICE-SOC+SSC
  Marvin Lechner         : AUTO-CI (C++ implementation), FIC-MRCC        
  Spencer Leger          : CASSCF response                               
  Dagmar Lenk            : GEPOL surface, SMD, ORCA-2-JSON               
  Dimitrios Liakos       : Extrapolation schemes; Compound Job, Property file
  Dimitrios Manganas     : Further ROCIS development; embedding schemes. LFT, Crystal Embedding 
  Dimitrios Pantazis     : SARC Basis sets                               
  Anastasios Papadopoulos: AUTO-CI, single reference methods and gradients 
  Taras Petrenko         : pre 6.0 DFT Hessian and TD-DFT gradient,  ECA, NRVS 
  Petra Pikulova         : Analytic Raman intensities                    
  Peter Pinski           : DLPNO-MP2, DLPNO-MP2 Gradient                 
  Shashank Vittal Rao    : ES-AILFT, MagRelax                            
  Christoph Reimann      : Effective Core Potentials                     
  Marius Retegan         : Local ZFS, SOC                                
  Christoph Riplinger    : Optimizer, TS searches, QM/MM, DLPNO-CCSD(T), (RO)-DLPNO pert. Triples 
  Michael Roemelt        : Original ROCIS implementation, recursive CI coupling coefficients
  Masaaki Saitow         : Open-shell DLPNO-CCSD energy and density      
  Barbara Sandhoefer     : DKH picture change effects                    
  Yorick L. A. Schmerwitz: GMF and freeze-and-release deltaSCF, NEB S-IDPP initial path                    
  Kantharuban Sivalingam : CASSCF convergence/infrastructure, NEVPT2, NEVPT3, NEVPT4(SD), FIC-MRCI and CEPA variants
  Bernardo de Souza      : ESD, SOC TD-DFT                               
  Georgi L. Stoychev     : AutoAux, RI-MP2 NMR, DLPNO-MP2 response, X2C  
  Van Anh Tran           : RI-MP2 g-tensors                              
  Willem Van den Heuvel  : Paramagnetic NMR                              
  Zikuan Wang            : NOTCH, Electric field optimization            
  Frank Wennmohs         : Technical directorship and infrastructure     
  Hang Xu                : AUTO-CI-Response properties                   
                                                                         
[FACCTs GmbH]                                                            
  Markus Bursch, Nicolas Foglia, Miquel Garcia-Rates, Ingolf Harden, Hagen Neugebauer, Anastasios Papadopoulos, 
  Christoph Riplinger, Bernardo de Souza, Georgi L. Stoychev                                                    
                                                                 
  APM, various basis sets, CI-OPT, improved COSX, DLPNO-Multilevel,           
  DOCKER, DRACO, updates on ESD, Fragmentator, GOAT, IRC, LR-CPCM, L-BFGS, MBIS, meta-GGA TD-DFT gradient, ML-optimized integration grids, 
  MM, NACMEs, nearIR, NEB, NEB-TS, NL-DFT gradient (VV10), 2- and 3-layer-ONIOM, interface openCOSMO-RS, QMMM,   
  Crystal-QMMM, RESP, rigid body optimization, SF, symmetry and pop. for TD-DFT, various functionals, SOLVATOR                                   
                                                                         
[Other institutions]                                                     
  V. Asgeirsson          : NEB                                           
  Christoph Bannwarth    : sTDA-DFT, sTD-DFT, PBEh-3c, B97-3c, D3        
  Giovanni Bistoni       : ETS/NOCV, ADLD/ADEX, COVALED                  
  Martin Brehm           : Molecular dynamics                            
  Ronald Cardenas        : ETS/NOCV                                      
  Martina Colucci        : COVALED                                       
  Sebastian Ehlert       : rSCAN, r2SCAN, r2SCAN-3c, D4, dhf basis sets  
  Marvin Friede          : D4 for Fr, Ra, Ac-Lr                          
  Lars Goerigk           : TD-DFT with DH, B97 family of functionals     
  Stefan Grimme          : VdW corrections, initial TS optimization, DFT functionals, gCP, sTDA/sTD-DF 
  Waldemar Hujo          : DFT-NL                                        
  H. Jonsson             : NEB                                           
  Holger Kruse           : gCP                                           
  Marcel Mueller         : wB97X-3c, vDZP basis set                      
  Hagen Neugebauer       : wr2SCAN, Native XTB                           
  Gianluca Regni         : ADLD/ADEX                                     
  Tobias Risthaus        : pre 6.0 range-separated hybrid DFT and stability analysis
  Lukas Wittmann         : regularized MP2, r2SCAN double-hybrids, wr2SCAN        
                                                                         
We gratefully acknowledge several colleagues who have allowed us to      
interface, adapt or use parts of their codes:                            
  Ed Valeev, F. Pavosevic, A. Kumar             : LibInt (2-el integral package), F12 methods 
  Garnet Chan, S. Sharma, J. Yang, R. Olivares  : DMRG                   
  Ulf Ekstrom                                   : XCFun DFT Library      
  Mihaly Kallay                                 : mrcc  (arbitrary order and MRCC methods)
  Frank Weinhold                                : gennbo (NPA and NBO analysis)           
  Simon Mueller                                 : openCOSMO-RS                            
  Christopher J. Cramer and Donald G. Truhlar   : smd solvation model                     
  S Lehtola, MJT Oliveira, MAL Marques          : LibXC Library                           
  Liviu Ungur et al                             : ANISO software                          


 Your calculation uses the libint2 library for the computation of 2-el integrals
 For citations please refer to: http://libint.valeyev.net

 Your ORCA version has been built with support for libXC version: 7.0.0
 For citations please refer to: https://libxc.gitlab.io

 This ORCA versions uses:
   CBLAS   interface :  Fast vector & matrix operations
   LAPACKE interface :  Fast linear algebra routines
   SCALAPACK package :  Parallel linear algebra routines
   Shared memory     :  Shared parallel matrices
   BLAS/LAPACK       :  OpenBLAS 0.3.29  USE64BITINT DYNAMIC_ARCH NO_AFFINITY Haswell SINGLE_THREADED
        Core in use  :  Haswell
   Copyright (c) 2011-2014, The OpenBLAS Project


  ***********************************
  * Starting time: Sat Aug 30 14:26:36 2025
  * Host name:     chemlab03
  * Process ID:    73175
  * Working dir.:  /home/vivek/mm-project/vivek/xtb-goat/B97-D-opt/a/2
  ***********************************



***************************************
The coordinates will be read from file: /home/vivek/mm-project/vivek/xtb-goat/xtb-goat/a/A_CONF/2.xyz
***************************************


Your calculation utilizes empirical dispersion correction


Warning: RI is on but no J-basis has been assigned. Assigning Def2/J (nothing to worry about!)
================================================================================

----- Orbital basis set information -----
Your calculation utilizes the basis: 6-31G**
   H-He, Li-Ne : W. J. Hehre, R. Ditchfield and J.A. Pople, J. Chem. Phys. 56, 2257 (1972).
                 Note: He and Ne are unpublished basis sets taken from the Gaussian program.
                 Note: Li and B from J. D. Dill and J. A. Pople, J. Chem. Phys. 62, 2921 (1975).
   Na - Ar     : M. M. Francl, W. J. Pietro, W. J. Hehre, J. S. Binkley, M. S. Gordon, 
                 D. J. DeFrees and J. A. Pople, J. Chem. Phys. 77, 3654 (1982).
   K - Zn      : V. A. Rassolov, J. A. Pople, M. A. Ratner, and T. L. Windus, J. Chem. Phys. 109, 1223 (1998).

----- AuxJ basis set information -----
Your calculation utilizes the auxiliary basis: def2/J
   H-Rn: F. Weigend, Phys. Chem. Chem. Phys. 8, 1057 (2006).
   Fr-Lr: K. Eichkorn, F. Weigend, O. Treutler, R. Ahlrichs; Theor. Chem. Acc. 97, 119 (1997).

================================================================================
                                        WARNINGS
                       Please study these warnings very carefully!
================================================================================


WARNING: Geometry Optimization
  ===> : Switching off AutoStart
         For restart on a previous wavefunction, please use MOREAD

INFO   : The exchange functional is Grimme's B97(-D)
         As described in S. Grimme, J. Comput. Chem. 27, 1787 (2006).
         Note that this functional defaults to a pure GGA. 

INFO   : The correlation functional is Grimme's B97(-D)
         As described in S. Grimme, J. Comput. Chem. 27, 1787 (2006).

================================================================================
                                       INPUT FILE
================================================================================
NAME = 2.inp
|  1> ! B97-D 6-31G** opt
|  2> 
|  3> * xyzfile 0 1 /home/vivek/mm-project/vivek/xtb-goat/xtb-goat/a/A_CONF/2.xyz
|  4> 
|  5>                          ****END OF INPUT****
================================================================================

                       *****************************
                       * Geometry Optimization Run *
                       *****************************

Geometry optimization settings:
Update method            Update   .... BFGS
Choice of coordinates    CoordSys .... (2022) Redundant Internals
Initial Hessian          InHess   .... Almloef's Model
Max. no of cycles        MaxIter  .... 50

Convergence Tolerances:
Energy Change            TolE     ....  5.0000e-06 Eh
Max. Gradient            TolMAXG  ....  3.0000e-04 Eh/bohr
RMS Gradient             TolRMSG  ....  1.0000e-04 Eh/bohr
Max. Displacement        TolMAXD  ....  4.0000e-03 bohr
RMS Displacement         TolRMSD  ....  2.0000e-03 bohr
Strict Convergence                .... False

------------------------------------------------------------------------------
                        ORCA OPTIMIZATION COORDINATE SETUP
------------------------------------------------------------------------------

The optimization will be done in redundant internal coordinates (2022)
Making redundant internal coordinates   ...  (2022 redundants) done
Evaluating the initial hessian          ...  (Almloef) done
Evaluating the coordinates              ...  done
Calculating the B-matrix                .... done
Calculating the G-matrix                .... done
The number of degrees of freedom        ....   50

    -----------------------------------------------------------------
                    Redundant Internal Coordinates


    -----------------------------------------------------------------
         Definition                    Initial Value    Approx d2E/dq
    -----------------------------------------------------------------
      1. B(O   1,C   0)                  1.2010         1.120496   
      2. B(O   2,C   0)                  1.3355         0.683691   
      3. B(C   3,C   0)                  1.5171         0.391654   
      4. B(H   4,O   2)                  0.9710         0.499362   
      5. B(C   5,C   3)                  1.5418         0.357718   
      6. B(H   6,C   5)                  1.0881         0.362623   
      7. B(N   7,C   3)                  1.4487         0.451083   
      8. B(H   8,C   5)                  1.0869         0.364269   
      9. B(H   9,C   5)                  1.0888         0.361677   
     10. B(H  10,C   3)                  1.0960         0.352283   
     11. B(H  11,N   7)                  1.0136         0.426999   
     12. B(H  12,O   1)                  2.3729         0.010000   
     13. B(H  12,N   7)                  1.0155         0.424100   
     14. A(O   1,C   0,C   3)          124.8833         0.441643   
     15. A(O   2,C   0,C   3)          112.1281         0.404336   
     16. A(O   1,C   0,O   2)          122.9347         0.485744   
     17. A(C   0,O   2,H   4)          110.4402         0.373790   
     18. A(C   0,C   3,H  10)          108.7090         0.325671   
     19. A(C   0,C   3,N   7)          108.8258         0.376010   
     20. A(C   0,C   3,C   5)          106.7271         0.363593   
     21. A(C   5,C   3,N   7)          114.4807         0.370182   
     22. A(N   7,C   3,H  10)          108.8238         0.331350   
     23. A(C   5,C   3,H  10)          109.1326         0.320865   
     24. A(H   8,C   5,H   9)          108.9979         0.291566   
     25. A(H   6,C   5,H   9)          108.9175         0.291359   
     26. A(C   3,C   5,H   6)          109.6613         0.322388   
     27. A(C   3,C   5,H   9)          110.0452         0.322251   
     28. A(H   6,C   5,H   8)          108.7352         0.291686   
     29. A(C   3,C   5,H   8)          110.4502         0.322628   
     30. A(H  11,N   7,H  12)          108.5326         0.301645   
     31. A(C   3,N   7,H  12)          109.5279         0.338799   
     32. A(C   3,N   7,H  11)          110.7092         0.339184   
     33. D(H   4,O   2,C   0,O   1)     -0.5040         0.034850   
     34. D(H   4,O   2,C   0,C   3)   -177.9501         0.034850   
     35. D(N   7,C   3,C   0,O   1)     33.7594         0.011407   
     36. D(N   7,C   3,C   0,O   2)   -148.8535         0.011407   
     37. D(C   5,C   3,C   0,O   2)     87.1176         0.011407   
     38. D(H  10,C   3,C   0,O   1)    152.1429         0.011407   
     39. D(C   5,C   3,C   0,O   1)    -90.2694         0.011407   
     40. D(H   8,C   5,C   3,H  10)     57.3082         0.010275   
     41. D(H   8,C   5,C   3,N   7)    179.5313         0.010275   
     42. D(H   8,C   5,C   3,C   0)    -59.9999         0.010275   
     43. D(H   6,C   5,C   3,H  10)    -62.5102         0.010275   
     44. D(H   6,C   5,C   3,N   7)     59.7129         0.010275   
     45. D(H   6,C   5,C   3,C   0)   -179.8183         0.010275   
     46. D(H  11,N   7,C   3,C   5)    -41.3731         0.017359   
     47. D(H  11,N   7,C   3,C   0)   -160.6708         0.017359   
     48. D(H  12,N   7,C   3,C   5)     78.2717         0.017359   
     49. D(H  12,N   7,C   3,C   0)    -41.0260         0.017359   
     50. D(H  11,N   7,C   3,H  10)     81.0180         0.017359   
    -----------------------------------------------------------------

Number of atoms                         .... 13
Number of degrees of freedom            .... 50


         *************************************************************
         *                GEOMETRY OPTIMIZATION CYCLE   1            *
         *************************************************************
---------------------------------
CARTESIAN COORDINATES (ANGSTROEM)
---------------------------------
  C     -4.455223   -0.010951   -1.940510
  O     -3.525471   -0.487196   -2.533096
  O     -4.392975    1.170321   -1.320650
  C     -5.838102   -0.629036   -1.854975
  H     -3.508081    1.558077   -1.417870
  C     -6.646790   -0.073526   -3.044344
  H     -7.653540   -0.485976   -3.027050
  N     -5.705345   -2.071550   -1.840786
  H     -6.712307    1.009799   -2.986086
  H     -6.168226   -0.349733   -3.982531
  H     -6.309346   -0.308062   -0.918993
  H     -6.579339   -2.514509   -2.100283
  H     -4.990975   -2.353229   -2.505249

----------------------------
CARTESIAN COORDINATES (A.U.)
----------------------------
  NO LB      ZA    FRAG     MASS         X           Y           Z
   0 C     6.0000    0    12.011   -8.419151   -0.020694   -3.667033
   1 O     8.0000    0    15.999   -6.662175   -0.920667   -4.786857
   2 O     8.0000    0    15.999   -8.301520    2.211587   -2.495667
   3 C     6.0000    0    12.011  -11.032414   -1.188706   -3.505395
   4 H     1.0000    0     1.008   -6.629313    2.944338   -2.679387
   5 C     6.0000    0    12.011  -12.560612   -0.138943   -5.752977
   6 H     1.0000    0     1.008  -14.463095   -0.918362   -5.720296
   7 N     7.0000    0    14.007  -10.781540   -3.914663   -3.478581
   8 H     1.0000    0     1.008  -12.684423    1.908243   -5.642884
   9 H     1.0000    0     1.008  -11.656257   -0.660900   -7.525893
  10 H     1.0000    0     1.008  -11.922936   -0.582153   -1.736645
  11 H     1.0000    0     1.008  -12.433149   -4.751733   -3.968959
  12 H     1.0000    0     1.008   -9.431577   -4.446959   -4.734235

--------------------------------
INTERNAL COORDINATES (ANGSTROEM)
--------------------------------
 C      0   0   0     0.000000000000     0.00000000     0.00000000
 O      1   0   0     1.201001728894     0.00000000     0.00000000
 O      1   2   0     1.335479309352   122.93468625     0.00000000
 C      1   2   3     1.517135446652   124.88328887   177.11578839
 H      3   1   2     0.971000851485   110.44022191   359.49599359
 C      4   1   2     1.541806575338   106.72706082   269.73061275
 H      6   4   1     1.088099657666   109.66128615   180.18167783
 N      4   1   2     1.448679511082   108.82575608    33.75944971
 H      6   4   1     1.086866386573   110.45018479   300.00010344
 H      6   4   1     1.088810404699   110.04517696    60.39050933
 H      4   1   2     1.095973859680   108.70899911   152.14294224
 H      8   4   1     1.013615326866   110.70917691   199.32919276
 H      8   4   1     1.015469825864   109.52788062   318.97396167

---------------------------
INTERNAL COORDINATES (A.U.)
---------------------------
 C      0   0   0     0.000000000000     0.00000000     0.00000000
 O      1   0   0     2.269564353975     0.00000000     0.00000000
 O      1   2   0     2.523690152193   122.93468625     0.00000000
 C      1   2   3     2.866970502237   124.88328887   177.11578839
 H      3   1   2     1.834925685110   110.44022191   359.49599359
 C      4   1   2     2.913592178868   106.72706082   269.73061275
 H      6   4   1     2.056210359402   109.66128615   180.18167783
 N      4   1   2     2.737607531768   108.82575608    33.75944971
 H      6   4   1     2.053879814788   110.45018479   300.00010344
 H      6   4   1     2.057553476645   110.04517696    60.39050933
 H      4   1   2     2.071090444732   108.70899911   152.14294224
 H      8   4   1     1.915455372921   110.70917691   199.32919276
 H      8   4   1     1.918959868144   109.52788062   318.97396167

---------------------
BASIS SET INFORMATION
---------------------
There are 4 groups of distinct atoms

 Group   1 Type C   : 10s4p1d contracted to 3s2p1d pattern {631/31/1}
 Group   2 Type O   : 10s4p1d contracted to 3s2p1d pattern {631/31/1}
 Group   3 Type H   : 4s1p contracted to 2s1p pattern {31/1}
 Group   4 Type N   : 10s4p1d contracted to 3s2p1d pattern {631/31/1}

Atom   0C    basis set group =>   1
Atom   1O    basis set group =>   2
Atom   2O    basis set group =>   2
Atom   3C    basis set group =>   1
Atom   4H    basis set group =>   3
Atom   5C    basis set group =>   1
Atom   6H    basis set group =>   3
Atom   7N    basis set group =>   4
Atom   8H    basis set group =>   3
Atom   9H    basis set group =>   3
Atom  10H    basis set group =>   3
Atom  11H    basis set group =>   3
Atom  12H    basis set group =>   3
---------------------------------
AUXILIARY/J BASIS SET INFORMATION
---------------------------------
There are 4 groups of distinct atoms

 Group   1 Type C   : 12s5p4d2f1g contracted to 6s4p3d1f1g pattern {711111/2111/211/2/1}
 Group   2 Type O   : 12s5p4d2f1g contracted to 6s4p3d1f1g pattern {711111/2111/211/2/1}
 Group   3 Type H   : 5s2p1d contracted to 3s1p1d pattern {311/2/1}
 Group   4 Type N   : 12s5p4d2f1g contracted to 6s4p3d1f1g pattern {711111/2111/211/2/1}

Atom   0C    basis set group =>   1
Atom   1O    basis set group =>   2
Atom   2O    basis set group =>   2
Atom   3C    basis set group =>   1
Atom   4H    basis set group =>   3
Atom   5C    basis set group =>   1
Atom   6H    basis set group =>   3
Atom   7N    basis set group =>   4
Atom   8H    basis set group =>   3
Atom   9H    basis set group =>   3
Atom  10H    basis set group =>   3
Atom  11H    basis set group =>   3
Atom  12H    basis set group =>   3
------------------------------------------------------------------------------
                             ORCA STARTUP CALCULATIONS
                           -- RI-GTO INTEGRALS CHOSEN --
------------------------------------------------------------------------------
------------------------------------------------------------------------------
                   ___                                                        
                  /   \      - P O W E R E D   B Y -                         
                 /     \                                                     
                 |  |  |   _    _      __       _____    __    __             
                 |  |  |  | |  | |    /  \     |  _  \  |  |  /  |          
                  \  \/   | |  | |   /    \    | | | |  |  | /  /          
                 / \  \   | |__| |  /  /\  \   | |_| |  |  |/  /          
                |  |  |   |  __  | /  /__\  \  |    /   |      \           
                |  |  |   | |  | | |   __   |  |    \   |  |\   \          
                \     /   | |  | | |  |  |  |  | |\  \  |  | \   \       
                 \___/    |_|  |_| |__|  |__|  |_| \__\ |__|  \__/        
                                                                              
                      - O R C A' S   B I G   F R I E N D -                    
                                      &                                       
                       - I N T E G R A L  F E E D E R -                       
                                                                              
 v1 FN, 2020, v2 2021, v3 2022-2024                                           
------------------------------------------------------------------------------


----------------------
SHARK INTEGRAL PACKAGE
----------------------

Number of atoms                             ...     13
Number of basis functions                   ...    119
Number of shells                            ...     57
Maximum angular momentum                    ...      2
Integral batch strategy                     ... SHARK/LIBINT Hybrid
RI-J (if used) integral strategy            ... SPLIT-RIJ (Revised 2003 algorithm where possible)
Printlevel                                  ...      1
Contraction scheme used                     ... SEGMENTED contraction
Prescreening option                         ... SCHWARTZ
   Thresh                                   ... 2.500e-11
   Tcut                                     ... 2.500e-12
   Tpresel                                  ... 2.500e-12 
Coulomb Range Separation                    ... NOT USED
Exchange Range Separation                   ... NOT USED
Multipole approximations                    ... NOT USED
Finite Nucleus Model                        ... NOT USED
CABS basis                                  ... NOT available
Auxiliary Coulomb fitting basis             ... AVAILABLE
   # of basis functions in Aux-J            ...    371
   # of shells in Aux-J                     ...    125
   Maximum angular momentum in Aux-J        ...      4
Auxiliary J/K fitting basis                 ... NOT available
Auxiliary Correlation fitting basis         ... NOT available
Auxiliary 'external' fitting basis          ... NOT available

Checking pre-screening integrals            ... done (  0.0 sec) Dimension = 57
   => SHARK Basis and OBASIS are compatible. Storing Pre-screening
Shell pair information
Shell pair cut-off parameter TPreSel        ...   2.5e-12
Total number of shell pairs                 ...      1653
Shell pairs after pre-screening             ...      1593
Total number of primitive shell pairs       ...      8022
Primitive shell pairs kept                  ...      5565
          la=0 lb=0:    503 shell pairs
          la=1 lb=0:    582 shell pairs
          la=1 lb=1:    183 shell pairs
          la=2 lb=0:    190 shell pairs
          la=2 lb=1:    114 shell pairs
          la=2 lb=2:     21 shell pairs

Checking whether 4 symmetric matrices of dimension 119 fit in memory
:Max Core in MB      =   4096.00
 MB in use           =      5.53
 MB left             =   4090.47
 MB needed           =      0.22
 Data fit in memory  = YES
Calculating RI/J V-Matrix + Cholesky decomp.... done (  0.0 sec)
Calculating Nuclear repulsion               ... done (  0.0 sec) ENN=    250.586711460954 Eh

Diagonalization of the overlap matrix:
Smallest eigenvalue                        ... 3.702e-03
Time for diagonalization                   ...    0.001 sec
Threshold for overlap eigenvalues          ... 1.000e-07
Number of eigenvalues below threshold      ... 0
Time for construction of square roots      ...    0.000 sec
Total time needed                          ...    0.001 sec

-------------------
DFT GRID GENERATION
-------------------

General Integration Accuracy     IntAcc      ... 4.388
Radial Grid Type                 RadialGrid  ... OptM3 with GC (2021)
Angular Grid (max. ang.)         AngularGrid ... 4 (Lebedev-302)
Angular grid pruning method      GridPruning ... 4 (adaptive)
Weight generation scheme         WeightScheme... mBecke (2022)
Basis function cutoff            BFCut       ... 1.0000e-11
Integration weight cutoff        WCut        ... 1.0000e-14
Partially contracted basis set               ... off
Rotationally invariant grid construction     ... off
Angular grids for H and He will be reduced by one unit

Total number of grid points                  ...    58941
Total number of batches                      ...      928
Average number of points per batch           ...       63
Average number of grid points per atom       ...     4534
Grids setup in   0.2 sec
Initializing property integral containers    ... done (  0.0 sec)

SHARK setup successfully completed in   0.2 seconds

Maximum memory used throughout the entire STARTUP-calculation: 24.7 MB
-------------------------------------------------------------------------------
                                 ORCA GUESS
                   Start orbitals & Density for SCF / CASSCF
-------------------------------------------------------------------------------

------------
SCF SETTINGS
------------
Hamiltonian:
 Density Functional     Method          .... DFT(GTOs)
 Exchange Functional    Exchange        .... B97(D)
 Correlation Functional Correlation     .... B97(D)
 Gradients option       PostSCFGGA      .... off
 RI-approximation to the Coulomb term is turned on
   Number of AuxJ basis functions       .... 371


General Settings:
 Integral files         IntName         .... 2
 Hartree-Fock type      HFTyp           .... RHF
 Total Charge           Charge          ....    0
 Multiplicity           Mult            ....    1
 Number of Electrons    NEL             ....   48
 Basis Dimension        Dim             ....  119
 Nuclear Repulsion      ENuc            ....    250.5867114610 Eh

Convergence Acceleration:
 AO-DIIS                CNVDIIS         .... on
   Start iteration      DIISMaxIt       ....    12
   Startup error        DIISStart       ....  0.200000
   # of expansion vecs  DIISMaxEq       ....     5
   Bias factor          DIISBfac        ....   1.050
   Max. coefficient     DIISMaxC        ....  10.000
 MO-DIIS                CNVKDIIS        .... off
 Trust-Rad. Augm. Hess. CNVTRAH         .... auto
   Auto Start mean grad. ratio tolernc. ....  1.125000
   Auto Start start iteration           ....    50
   Auto Start num. interpolation iter.  ....    10
   Max. Number of Micro iterations      ....    24
   Max. Number of Macro iterations      .... Maxiter - #DIIS iter
   Number of Davidson start vectors     ....     2
   Converg. threshold    (grad. norm)   ....   1.000e-05
   Grad. Scal. Fac. for Micro threshold ....   0.100
   Minimum threshold for Micro iter.    ....   1.000e-02
   NR start threshold (gradient norm)   ....   1.000e-04
   Initial trust radius                 ....   0.400
   Minimum AH scaling param. (alpha)    ....   1.000
   Maximum AH scaling param. (alpha)    .... 1000.000
   Quad. conv. algorithm                .... NR
   White noise on init. David. guess    .... on
   Maximum white noise                  ....   0.010
   Pseudo random numbers                .... off
   Inactive MOs                         .... canonical
   Orbital update algorithm             .... Taylor
   Preconditioner                       .... Diag
   Full preconditioner red. dimension   ....   250
 SOSCF                 CNVSOSCF           .... on
   Start iteration     SOSCFMaxIt         ....   150
   Startup grad/error  SOSCFStart         ....  0.003300
   Hessian update      SOSCFHessUp        .... L-BFGS
   Autom. constraints  SOSCFAutoConstrain .... off
 Level Shifting         CNVShift        .... on
   Level shift para.    LevelShift      ....    0.2500
   Turn off err/grad.   ShiftErr        ....    0.0010
 Zerner damping         CNVZerner       .... off
 Static damping         CNVDamp         .... on
   Fraction old density DampFac         ....    0.7000
   Max. Damping (<1)    DampMax         ....    0.9800
   Min. Damping (>=0)   DampMin         ....    0.0000
   Turn off err/grad.   DampErr         ....    0.1000

SCF Procedure:
 Maximum # iterations   MaxIter         ....   125
 SCF integral mode      SCFMode         .... Direct
   Integral package                     .... SHARK and LIBINT hybrid scheme
 Reset frequency        DirectResetFreq ....    20
 Integral Threshold     Thresh          ....  2.500e-11 Eh
 Primitive CutOff       TCut            ....  2.500e-12 Eh

Convergence Tolerance:
 Convergence Check Mode ConvCheckMode   .... Total+1el-Energy
 Convergence forced     ConvForced      .... 0
 Energy Change          TolE            ....  1.000e-08 Eh
 1-El. energy change                    ....  1.000e-05 Eh
 Orbital Gradient       TolG            ....  1.000e-05
 Orbital Rotation angle TolX            ....  1.000e-05
 DIIS Error             TolErr          ....  5.000e-07

------------------------------
INITIAL GUESS: MODEL POTENTIAL
------------------------------
Loading Hartree-Fock densities                     ... done
Calculating cut-offs                               ... done
Initializing the effective Hamiltonian             ... done
Setting up the integral package (SHARK)            ... done
Starting the Coulomb interaction                   ... done (   0.0 sec)
Making the grid                                    ... done (   0.0 sec)
Mapping shells                                     ... done
Starting the XC term evaluation                    ... done (   0.0 sec)
  promolecular density results
     # of electrons  =     47.994813401
     EX              =    -39.861673793
     EC              =     -2.123853608
     EX+EC           =    -41.985527402
Transforming the Hamiltonian                       ... done (   0.0 sec)
Diagonalizing the Hamiltonian                      ... done (   0.0 sec)
Back transforming the eigenvectors                 ... done (   0.0 sec)
Now organizing SCF variables                       ... done
                      ------------------
                      INITIAL GUESS DONE (   0.1 sec)
                      ------------------
             **** ENERGY FILE WAS UPDATED (2.en.tmp) ****
Finished Guess after   0.1 sec
Maximum memory used throughout the entire GUESS-calculation: 9.4 MB

-------------------------------------------------------------------------------------------
                                      ORCA LEAN-SCF
                              memory conserving SCF solver
-------------------------------------------------------------------------------------------

----------------------------------------D-I-I-S--------------------------------------------
Iteration    Energy (Eh)           Delta-E    RMSDP     MaxDP     DIISErr   Damp  Time(sec)
-------------------------------------------------------------------------------------------
               ***  Starting incremental Fock matrix formation  ***
    1    -323.2726735358909309     0.00e+00  4.84e-03  1.00e-01  2.55e-01  0.700   0.2
    2    -323.4018813309878624    -1.29e-01  3.01e-03  5.42e-02  1.01e-01  0.700   0.2
                               ***Turning on AO-DIIS***
    3    -323.4408754950819684    -3.90e-02  1.12e-03  1.56e-02  2.95e-02  0.700   0.2
    4    -323.4666233097497070    -2.57e-02  1.48e-03  1.96e-02  1.05e-02  0.000   0.2
    5    -323.5264347039474160    -5.98e-02  5.11e-04  9.09e-03  1.10e-02  0.000   0.2
                              *** Initializing SOSCF ***
---------------------------------------S-O-S-C-F--------------------------------------
Iteration    Energy (Eh)           Delta-E    RMSDP     MaxDP     MaxGrad    Time(sec)
--------------------------------------------------------------------------------------
    6    -323.5270355460222618    -6.01e-04  1.86e-04  3.16e-03  2.95e-03     0.2
               *** Restarting incremental Fock matrix formation ***
    7    -323.5270778461120926    -4.23e-05  1.62e-04  2.86e-03  7.35e-04     0.2
    8    -323.5270613307808389     1.65e-05  8.46e-05  2.26e-03  2.11e-03     0.2
    9    -323.5270842809901524    -2.30e-05  6.02e-05  9.85e-04  2.81e-04     0.2
   10    -323.5270824466464319     1.83e-06  3.42e-05  5.75e-04  2.77e-04     0.2
   11    -323.5270855932025142    -3.15e-06  1.01e-05  2.00e-04  3.39e-05     0.2
   12    -323.5270855370936260     5.61e-08  5.79e-06  1.29e-04  5.56e-05     0.2
   13    -323.5270856339852799    -9.69e-08  1.44e-06  2.29e-05  6.34e-06     0.2
   14    -323.5270856340897581    -1.04e-10  8.28e-07  1.30e-05  8.87e-06     0.2
                 **** Energy Check signals convergence ****

               *****************************************************
               *                     SUCCESS                       *
               *           SCF CONVERGED AFTER  14 CYCLES          *
               *****************************************************

             **** ENERGY FILE WAS UPDATED (2.en.tmp) ****

----------------
TOTAL SCF ENERGY
----------------

Total Energy       :       -323.52708563676981 Eh           -8803.61957 eV

Components:
Nuclear Repulsion  :        250.58671146095401 Eh            6818.81108 eV
Electronic Energy  :       -574.11379709772382 Eh          -15622.43065 eV
One Electron Energy:       -937.50212204272884 Eh          -25510.72968 eV
Two Electron Energy:        363.38832494500497 Eh            9888.29903 eV

Virial components:
Potential Energy   :       -645.39953206636983 Eh          -17562.21411 eV
Kinetic Energy     :        321.87244642959996 Eh            8758.59455 eV
Virial Ratio       :          2.00514066744614

DFT components:
N(Alpha)           :       24.000004989164 electrons
N(Beta)            :       24.000004989164 electrons
N(Total)           :       48.000009978329 electrons
E(X)               :      -40.768609861223 Eh       
E(C)               :       -2.115995147270 Eh       
E(XC)              :      -42.884605008493 Eh       

---------------
SCF CONVERGENCE
---------------

  Last Energy change         ...    1.0448e-10  Tolerance :   1.0000e-08
  Last MAX-Density change    ...    1.2996e-05  Tolerance :   1.0000e-07
  Last RMS-Density change    ...    8.2751e-07  Tolerance :   5.0000e-09
  Last DIIS Error            ...    2.9476e-03  Tolerance :   5.0000e-07
  Last Orbital Gradient      ...    8.8685e-06  Tolerance :   1.0000e-05
  Last Orbital Rotation      ...    8.3906e-06  Tolerance :   1.0000e-05


----------------
ORBITAL ENERGIES
----------------

  NO   OCC          E(Eh)            E(eV) 
   0   2.0000     -18.816106      -512.0123 
   1   2.0000     -18.756081      -510.3789 
   2   2.0000     -13.982161      -380.4739 
   3   2.0000     -10.032394      -272.9953 
   4   2.0000      -9.948040      -270.6999 
   5   2.0000      -9.906417      -269.5673 
   6   2.0000      -1.023870       -27.8609 
   7   2.0000      -0.935130       -25.4462 
   8   2.0000      -0.812461       -22.1082 
   9   2.0000      -0.681696       -18.5499 
  10   2.0000      -0.610155       -16.6032 
  11   2.0000      -0.533712       -14.5230 
  12   2.0000      -0.470425       -12.8009 
  13   2.0000      -0.423398       -11.5212 
  14   2.0000      -0.415127       -11.2962 
  15   2.0000      -0.391223       -10.6457 
  16   2.0000      -0.380775       -10.3614 
  17   2.0000      -0.356954        -9.7132 
  18   2.0000      -0.355749        -9.6804 
  19   2.0000      -0.322852        -8.7853 
  20   2.0000      -0.316178        -8.6036 
  21   2.0000      -0.274961        -7.4821 
  22   2.0000      -0.227409        -6.1881 
  23   2.0000      -0.186693        -5.0802 
  24   0.0000      -0.016918        -0.4604 
  25   0.0000       0.052245         1.4217 
  26   0.0000       0.069938         1.9031 
  27   0.0000       0.117294         3.1917 
  28   0.0000       0.124170         3.3788 
  29   0.0000       0.137389         3.7386 
  30   0.0000       0.149826         4.0770 
  31   0.0000       0.161744         4.4013 
  32   0.0000       0.185749         5.0545 
  33   0.0000       0.200900         5.4668 
  34   0.0000       0.238038         6.4773 
*Only the first 10 virtual orbitals were printed.

                    ********************************
                    * MULLIKEN POPULATION ANALYSIS *
                    ********************************

-----------------------
MULLIKEN ATOMIC CHARGES
-----------------------
   0 C :    0.522449
   1 O :   -0.418006
   2 O :   -0.455678
   3 C :   -0.022142
   4 H :    0.319372
   5 C :   -0.340712
   6 H :    0.113686
   7 N :   -0.573102
   8 H :    0.120194
   9 H :    0.121673
  10 H :    0.126545
  11 H :    0.235073
  12 H :    0.250648
Sum of atomic charges:   -0.0000000

--------------------------------
MULLIKEN REDUCED ORBITAL CHARGES
--------------------------------
  0 C s       :     2.972915  s :     2.972915
      pz      :     0.764422  p :     2.378748
      px      :     0.881764
      py      :     0.732562
      dz2     :     0.019082  d :     0.125889
      dxz     :     0.017931
      dyz     :     0.023684
      dx2y2   :     0.039159
      dxy     :     0.026034

  1 O s       :     3.859984  s :     3.859984
      pz      :     1.424283  p :     4.529700
      px      :     1.480286
      py      :     1.625131
      dz2     :     0.005962  d :     0.028321
      dxz     :     0.007082
      dyz     :     0.003004
      dx2y2   :     0.005721
      dxy     :     0.006553

  2 O s       :     3.826307  s :     3.826307
      pz      :     1.708540  p :     4.606356
      px      :     1.487447
      py      :     1.410370
      dz2     :     0.004619  d :     0.023015
      dxz     :     0.002011
      dyz     :     0.005141
      dx2y2   :     0.006566
      dxy     :     0.004677

  3 C s       :     3.187888  s :     3.187888
      pz      :     1.000665  p :     2.776671
      px      :     0.949308
      py      :     0.826699
      dz2     :     0.010722  d :     0.057583
      dxz     :     0.007344
      dyz     :     0.014979
      dx2y2   :     0.013224
      dxy     :     0.011314

  4 H s       :     0.642742  s :     0.642742
      pz      :     0.008817  p :     0.037886
      px      :     0.019422
      py      :     0.009646

  5 C s       :     3.258698  s :     3.258698
      pz      :     0.984518  p :     3.052685
      px      :     1.020366
      py      :     1.047802
      dz2     :     0.008550  d :     0.029329
      dxz     :     0.005889
      dyz     :     0.002862
      dx2y2   :     0.008473
      dxy     :     0.003554

  6 H s       :     0.874702  s :     0.874702
      pz      :     0.002556  p :     0.011612
      px      :     0.005956
      py      :     0.003100

  7 N s       :     3.590418  s :     3.590418
      pz      :     1.652836  p :     3.954894
      px      :     1.189033
      py      :     1.113026
      dz2     :     0.003897  d :     0.027790
      dxz     :     0.007534
      dyz     :     0.004750
      dx2y2   :     0.006247
      dxy     :     0.005362

  8 H s       :     0.868228  s :     0.868228
      pz      :     0.002499  p :     0.011577
      px      :     0.002578
      py      :     0.006501

  9 H s       :     0.866889  s :     0.866889
      pz      :     0.005431  p :     0.011438
      px      :     0.003223
      py      :     0.002784

 10 H s       :     0.862640  s :     0.862640
      pz      :     0.005661  p :     0.010814
      px      :     0.003077
      py      :     0.002076

 11 H s       :     0.740835  s :     0.740835
      pz      :     0.007913  p :     0.024092
      px      :     0.009815
      py      :     0.006365

 12 H s       :     0.724937  s :     0.724937
      pz      :     0.009638  p :     0.024416
      px      :     0.009614
      py      :     0.005163



                     *******************************
                     * LOEWDIN POPULATION ANALYSIS *
                     *******************************

----------------------
LOEWDIN ATOMIC CHARGES
----------------------
   0 C :    0.124334
   1 O :   -0.216904
   2 O :   -0.134462
   3 C :   -0.045532
   4 H :    0.183626
   5 C :   -0.205101
   6 H :    0.071920
   7 N :   -0.257182
   8 H :    0.075507
   9 H :    0.074763
  10 H :    0.078615
  11 H :    0.122410
  12 H :    0.128006

-------------------------------
LOEWDIN REDUCED ORBITAL CHARGES
-------------------------------
  0 C s       :     2.847288  s :     2.847288
      pz      :     0.834496  p :     2.729471
      px      :     1.015322
      py      :     0.879653
      dz2     :     0.040899  d :     0.298907
      dxz     :     0.040458
      dyz     :     0.059531
      dx2y2   :     0.096049
      dxy     :     0.061970

  1 O s       :     3.552440  s :     3.552440
      pz      :     1.438378  p :     4.606022
      px      :     1.542254
      py      :     1.625391
      dz2     :     0.008788  d :     0.058443
      dxz     :     0.016237
      dyz     :     0.006824
      dx2y2   :     0.012862
      dxy     :     0.013732

  2 O s       :     3.469559  s :     3.469559
      pz      :     1.688325  p :     4.613940
      px      :     1.488705
      py      :     1.436911
      dz2     :     0.008214  d :     0.050963
      dxz     :     0.002742
      dyz     :     0.012579
      dx2y2   :     0.015401
      dxy     :     0.012028

  3 C s       :     2.880455  s :     2.880455
      pz      :     1.058049  p :     3.034894
      px      :     1.025827
      py      :     0.951018
      dz2     :     0.023767  d :     0.130183
      dxz     :     0.017735
      dyz     :     0.032026
      dx2y2   :     0.031835
      dxy     :     0.024821

  4 H s       :     0.700995  s :     0.700995
      pz      :     0.025092  p :     0.115379
      px      :     0.062626
      py      :     0.027661

  5 C s       :     2.930941  s :     2.930941
      pz      :     1.055095  p :     3.211497
      px      :     1.067655
      py      :     1.088747
      dz2     :     0.017674  d :     0.062663
      dxz     :     0.013616
      dyz     :     0.006650
      dx2y2   :     0.017105
      dxy     :     0.007618

  6 H s       :     0.888229  s :     0.888229
      pz      :     0.007273  p :     0.039850
      px      :     0.022954
      py      :     0.009624

  7 N s       :     3.190601  s :     3.190601
      pz      :     1.632263  p :     4.009441
      px      :     1.203688
      py      :     1.173489
      dz2     :     0.005988  d :     0.057140
      dxz     :     0.011604
      dyz     :     0.008412
      dx2y2   :     0.017062
      dxy     :     0.014074

  8 H s       :     0.883833  s :     0.883833
      pz      :     0.007122  p :     0.040660
      px      :     0.007304
      py      :     0.026234

  9 H s       :     0.884970  s :     0.884970
      pz      :     0.021577  p :     0.040267
      px      :     0.010490
      py      :     0.008200

 10 H s       :     0.882114  s :     0.882114
      pz      :     0.021485  p :     0.039271
      px      :     0.010795
      py      :     0.006992

 11 H s       :     0.798460  s :     0.798460
      pz      :     0.024245  p :     0.079131
      px      :     0.035560
      py      :     0.019326

 12 H s       :     0.790372  s :     0.790372
      pz      :     0.035017  p :     0.081623
      px      :     0.031546
      py      :     0.015060



                      *****************************
                      * MAYER POPULATION ANALYSIS *
                      *****************************

  NA   - Mulliken gross atomic population
  ZA   - Total nuclear charge
  QA   - Mulliken gross atomic charge
  VA   - Mayer's total valence
  BVA  - Mayer's bonded valence
  FA   - Mayer's free valence

  ATOM       NA         ZA         QA         VA         BVA        FA
  0 C      5.4776     6.0000     0.5224     3.9678     3.9678     0.0000
  1 O      8.4180     8.0000    -0.4180     2.1164     2.1164     0.0000
  2 O      8.4557     8.0000    -0.4557     2.0517     2.0517     0.0000
  3 C      6.0221     6.0000    -0.0221     3.8821     3.8821    -0.0000
  4 H      0.6806     1.0000     0.3194     0.9160     0.9160     0.0000
  5 C      6.3407     6.0000    -0.3407     3.8558     3.8558    -0.0000
  6 H      0.8863     1.0000     0.1137     0.9566     0.9566     0.0000
  7 N      7.5731     7.0000    -0.5731     2.8661     2.8661    -0.0000
  8 H      0.8798     1.0000     0.1202     0.9564     0.9564    -0.0000
  9 H      0.8783     1.0000     0.1217     0.9596     0.9596     0.0000
 10 H      0.8735     1.0000     0.1265     0.9452     0.9452     0.0000
 11 H      0.7649     1.0000     0.2351     0.9254     0.9254    -0.0000
 12 H      0.7494     1.0000     0.2506     0.9338     0.9338    -0.0000

  Mayer bond orders larger than 0.100000
B(  0-C ,  1-O ) :   1.9126 B(  0-C ,  2-O ) :   1.0980 B(  0-C ,  3-C ) :   0.9267 
B(  2-O ,  4-H ) :   0.8522 B(  3-C ,  5-C ) :   0.9735 B(  3-C ,  7-N ) :   1.0374 
B(  3-C , 10-H ) :   0.9259 B(  5-C ,  6-H ) :   0.9570 B(  5-C ,  8-H ) :   0.9460 
B(  5-C ,  9-H ) :   0.9551 B(  7-N , 11-H ) :   0.9097 B(  7-N , 12-H ) :   0.8866 


-------
TIMINGS
-------

Total SCF time: 0 days 0 hours 0 min 3 sec 

Total time                  ....       3.241 sec
Sum of individual times     ....       3.011 sec  ( 92.9%)

SCF preparation             ....       0.023 sec  (  0.7%)
Fock matrix formation       ....       2.964 sec  ( 91.5%)
  Startup                   ....       0.000 sec  (  0.0% of F)
  Split-RI-J                ....       0.780 sec  ( 26.3% of F)
  XC integration            ....       2.364 sec  ( 79.8% of F)
    Basis function eval.    ....       0.823 sec  ( 34.8% of XC)
    Density eval.           ....       0.449 sec  ( 19.0% of XC)
    XC-Functional eval.     ....       0.534 sec  ( 22.6% of XC)
    XC-Potential eval.      ....       0.487 sec  ( 20.6% of XC)
Diagonalization             ....       0.000 sec  (  0.0%)
Density matrix formation    ....       0.002 sec  (  0.1%)
Total Energy calculation    ....       0.000 sec  (  0.0%)
Population analysis         ....       0.001 sec  (  0.0%)
Orbital Transformation      ....       0.002 sec  (  0.1%)
Orbital Orthonormalization  ....       0.000 sec  (  0.0%)
DIIS solution               ....       0.010 sec  (  0.3%)
SOSCF solution              ....       0.008 sec  (  0.2%)
Finished LeanSCF after   3.2 sec

Maximum memory used throughout the entire LEANSCF-calculation: 12.8 MB



-------------------------------------------------------------------------------
                          DFT DISPERSION CORRECTION                            
-------------------------------------------------------------------------------
Active option DFTDOPT                   ...         2   
Final C6-coefficient scaling factor     ...     1.250
Final VDW-radii scaling factor          ...     1.100
Damping factor alpha                    ...    20.000
-------------------------   ----------------
Dispersion correction           -0.013187847
-------------------------   ----------------


-------------------------   --------------------
FINAL SINGLE POINT ENERGY      -323.540273483556
-------------------------   --------------------

------------------------------------------------------------------------------
                         ORCA SCF GRADIENT CALCULATION
------------------------------------------------------------------------------

Nuc. rep. gradient        (SHARK) ... done (  0.0 sec)
HCore & Overlap gradient  (SHARK) ... done (  0.0 sec)
Split-RIJ-J gradient      (SHARK) ... done (  0.2 sec)
XC gradient                       ... done (  1.1 sec)
Dispersion correction             ... done (  0.0 sec)

-------------------
DISPERSION GRADIENT
-------------------

   1   C   :   -0.000159780   -0.000570781    0.000455822
   2   O   :   -0.000050352    0.000079792    0.000603275
   3   O   :    0.000530588    0.000044746    0.000275054
   4   C   :   -0.000292493    0.000108895   -0.001214683
   5   H   :    0.000196297   -0.000293568   -0.000187362
   6   C   :   -0.000293829   -0.000078916    0.000482395
   7   H   :    0.000394225    0.000996658   -0.000684566
   8   N   :    0.000369236    0.000445944    0.000333494
   9   H   :   -0.000621675   -0.000870628   -0.000732718
  10   H   :   -0.001156307    0.000739165    0.000173246
  11   H   :    0.000481186   -0.000055494    0.000056603
  12   H   :    0.000336428   -0.000747432    0.000091098
  13   H   :    0.000266477    0.000201618    0.000348343

Difference to translation invariance:
           :    0.0000000000    0.0000000000   -0.0000000000

Difference to rotation invariance:
           :   -0.0000000000   -0.0000000000    0.0000000000

Norm of the Dispersion gradient    ...    0.0031872555
RMS gradient                       ...    0.0005103693
MAX gradient                       ...    0.0012146831

------------------
CARTESIAN GRADIENT
------------------

   1   C   :    0.010096722   -0.000213998   -0.008147747
   2   O   :   -0.025593825    0.016237495    0.018272539
   3   O   :    0.010792408   -0.021841998   -0.015801620
   4   C   :    0.003647360    0.000236216    0.000801900
   5   H   :   -0.003998852    0.003263000    0.004118332
   6   C   :   -0.000658255   -0.000970072   -0.002793112
   7   H   :    0.007334393    0.002892411    0.000019414
   8   N   :   -0.004179191    0.008314205   -0.006970750
   9   H   :    0.002037420   -0.009215488    0.000890669
  10   H   :   -0.003336759    0.002226170    0.006110058
  11   H   :    0.001884196   -0.002864816   -0.002328944
  12   H   :    0.003246433    0.000742035    0.001912659
  13   H   :   -0.001272049    0.001194842    0.003916602

Difference to translation invariance:
           :   -0.0000000000   -0.0000000000    0.0000000000

Difference to rotation invariance:
           :    0.0000090218   -0.0000450352   -0.0000291731

Norm of the Cartesian gradient     ...    0.0521720984
RMS gradient                       ...    0.0083542218
MAX gradient                       ...    0.0255938254

-------
TIMINGS
-------

Total SCF gradient time     ....        1.368 sec

Densities                   ....       0.000 sec  (  0.0%)
One electron gradient       ....       0.042 sec  (  3.0%)
RI-J Coulomb gradient       ....       0.235 sec  ( 17.2%)
XC gradient                 ....       1.091 sec  ( 79.8%)

Maximum memory used throughout the entire SCFGRAD-calculation: 16.9 MB
------------------------------------------------------------------------------
                         ORCA GEOMETRY RELAXATION STEP
------------------------------------------------------------------------------

Reading the OPT-File                    .... done
Getting information on internals        .... done
Copying old internal coords+grads       .... done
Making the new internal coordinates     .... (2022 redundants) done
Validating the new internal coordinates .... (2022 redundants) done
Calculating the B-matrix                .... done
Calculating the G,G- and P matrices     .... done
Transforming gradient to internals      .... done
Projecting the internal gradient        .... done
Number of atoms                         ....  13
Number of internal coordinates          ....  50
Current Energy                          ....  -323.540273484 Eh
Current gradient norm                   ....     0.052172098 Eh/bohr
Maximum allowed component of the step   ....  0.300
Current trust radius                    ....  0.300
Evaluating the initial hessian          ....  (Almloef) done
Projecting the Hessian                  .... done
Forming the augmented Hessian           .... done
Diagonalizing the augmented Hessian     .... done
Last element of RFO vector              ....  0.992458070
Lowest eigenvalues of augmented Hessian:
 -0.003796239  0.010278264  0.011362661  0.016168181  0.018219979
Length of the computed step             ....  0.123516127
The final length of the internal step   ....  0.123516127
Converting the step to Cartesian space:
 Initial RMS(Int)=    0.0174678181
Transforming coordinates:
 Iter   0:  RMS(Cart)=    0.0250070980 RMS(Int)=    0.0174772811
done
Storing new coordinates                 .... done

                                .--------------------.
          ----------------------|Geometry convergence|-------------------------
          Item                value                   Tolerance       Converged
          ---------------------------------------------------------------------
          RMS gradient        0.0069170647            0.0001000000      NO
          MAX gradient        0.0350467591            0.0003000000      NO
          RMS step            0.0174678181            0.0020000000      NO
          MAX step            0.0471745122            0.0040000000      NO
          -------------------------------------------------------------------------
          ........................................................
          Max(Bonds)      0.0197      Max(Angles)    1.66
          Max(Dihed)        2.70      Max(Improp)    0.00
          ---------------------------------------------------------------------

The optimization has not yet converged - more geometry cycles are needed


    ---------------------------------------------------------------------------
                         Redundant Internal Coordinates
                            (Angstroem and degrees)

        Definition                    Value    dE/dq     Step     New-Value
    ----------------------------------------------------------------------------
     1. B(O   1,C   0)                1.2010 -0.035047  0.0166    1.2176   
     2. B(O   2,C   0)                1.3355 -0.021540  0.0166    1.3521   
     3. B(C   3,C   0)                1.5171 -0.007750  0.0113    1.5284   
     4. B(H   4,O   2)                0.9710 -0.002753  0.0029    0.9739   
     5. B(C   5,C   3)                1.5418 -0.007908  0.0116    1.5534   
     6. B(H   6,C   5)                1.0881 -0.007881  0.0114    1.0995   
     7. B(N   7,C   3)                1.4487 -0.009487  0.0117    1.4604   
     8. B(H   8,C   5)                1.0869 -0.009261  0.0133    1.1002   
     9. B(H   9,C   5)                1.0888 -0.007297  0.0106    1.0994   
    10. B(H  10,C   3)                1.0960 -0.003638  0.0054    1.1014   
    11. B(H  11,N   7)                1.0136 -0.003614  0.0044    1.0181   
    12. B(H  12,O   1)                2.3729 -0.001284  0.0197    2.3926   
    13. B(H  12,N   7)                1.0155 -0.004076  0.0048    1.0203   
    14. A(O   1,C   0,C   3)          124.88  0.003269   -0.27    124.61   
    15. A(O   2,C   0,C   3)          112.13  0.003019   -0.50    111.63   
    16. A(O   1,C   0,O   2)          122.93 -0.006257    0.67    123.60   
    17. A(C   0,O   2,H   4)          110.44  0.010913   -1.66    108.78   
    18. A(C   0,C   3,H  10)          108.71 -0.000016   -0.29    108.41   
    19. A(C   0,C   3,N   7)          108.83  0.002788   -0.17    108.65   
    20. A(C   0,C   3,C   5)          106.73 -0.002247    0.44    107.17   
    21. A(C   5,C   3,N   7)          114.48 -0.001107    0.32    114.80   
    22. A(N   7,C   3,H  10)          108.82 -0.001526    0.21    109.03   
    23. A(C   5,C   3,H  10)          109.13  0.002163   -0.53    108.61   
    24. A(H   8,C   5,H   9)          109.00  0.000002   -0.02    108.98   
    25. A(H   6,C   5,H   9)          108.92  0.000575   -0.13    108.79   
    26. A(C   3,C   5,H   6)          109.66  0.000569   -0.08    109.58   
    27. A(C   3,C   5,H   9)          110.05  0.001036   -0.20    109.85   
    28. A(H   6,C   5,H   8)          108.74  0.001263   -0.20    108.54   
    29. A(C   3,C   5,H   8)          110.45 -0.003395    0.61    111.06   
    30. A(H  11,N   7,H  12)          108.53 -0.000226   -0.48    108.05   
    31. A(C   3,N   7,H  12)          109.53  0.001975   -0.36    109.17   
    32. A(C   3,N   7,H  11)          110.71  0.001639   -0.51    110.20   
    33. D(H   4,O   2,C   0,O   1)     -0.50 -0.000256   -0.16     -0.66   
    34. D(H   4,O   2,C   0,C   3)   -177.95 -0.001121    2.20   -175.75   
    35. D(N   7,C   3,C   0,O   1)     33.76 -0.000299    0.24     33.99   
    36. D(N   7,C   3,C   0,O   2)   -148.85  0.000298   -2.15   -151.00   
    37. D(C   5,C   3,C   0,O   2)     87.12  0.001367   -2.70     84.41   
    38. D(H  10,C   3,C   0,O   1)    152.14 -0.000552    0.22    152.36   
    39. D(C   5,C   3,C   0,O   1)    -90.27  0.000770   -0.32    -90.59   
    40. D(H   8,C   5,C   3,H  10)     57.31  0.000314   -0.45     56.86   
    41. D(H   8,C   5,C   3,N   7)    179.53 -0.000806   -0.36    179.17   
    42. D(H   8,C   5,C   3,C   0)    -60.00  0.000439   -0.07    -60.07   
    43. D(H   6,C   5,C   3,H  10)    -62.51  0.000514   -0.54    -63.05   
    44. D(H   6,C   5,C   3,N   7)     59.71 -0.000606   -0.45     59.27   
    45. D(H   6,C   5,C   3,C   0)   -179.82  0.000640   -0.16   -179.97   
    46. D(H  11,N   7,C   3,C   5)    -41.37 -0.001441   -0.05    -41.43   
    47. D(H  11,N   7,C   3,C   0)   -160.67  0.000150   -0.70   -161.37   
    48. D(H  12,N   7,C   3,C   5)     78.27  0.000558   -1.19     77.08   
    49. D(H  12,N   7,C   3,C   0)    -41.03  0.002149   -1.84    -42.86   
    50. D(H  11,N   7,C   3,H  10)     81.02 -0.000551   -0.36     80.66   
    ----------------------------------------------------------------------------

Geometry step timings:
Preparation and reading OPT file:      0.000 s ( 1.879 %)
Internal coordinates            :      0.000 s ( 1.445 %)
B/P matrices and projection     :      0.000 s (38.439 %)
Hessian update/contruction      :      0.000 s (10.405 %)
Making the step                 :      0.000 s (25.578 %)
Converting the step to Cartesian:      0.000 s ( 3.757 %)
Storing new data                :      0.000 s ( 2.023 %)
Checking convergence            :      0.000 s ( 1.590 %)
Final printing                  :      0.000 s (14.884 %)
Total time                      :      0.001 s

Time for energy+gradient        :      5.060 s
Time for complete geometry iter :      5.075 s

         *************************************************************
         *                GEOMETRY OPTIMIZATION CYCLE   2            *
         *************************************************************
---------------------------------
CARTESIAN COORDINATES (ANGSTROEM)
---------------------------------
  C     -4.438927   -0.019346   -1.917402
  O     -3.496176   -0.506381   -2.514453
  O     -4.401213    1.194166   -1.322396
  C     -5.835439   -0.636728   -1.849100
  H     -3.515011    1.577857   -1.448494
  C     -6.648419   -0.064819   -3.042825
  H     -7.664554   -0.484576   -3.031290
  N     -5.703197   -2.091063   -1.838902
  H     -6.722000    1.031217   -2.982087
  H     -6.162902   -0.338651   -3.990411
  H     -6.313465   -0.313003   -0.911159
  H     -6.585576   -2.526083   -2.100819
  H     -4.998843   -2.368160   -2.523085

----------------------------
CARTESIAN COORDINATES (A.U.)
----------------------------
  NO LB      ZA    FRAG     MASS         X           Y           Z
   0 C     6.0000    0    12.011   -8.388356   -0.036558   -3.623364
   1 O     8.0000    0    15.999   -6.606815   -0.956922   -4.751627
   2 O     8.0000    0    15.999   -8.317088    2.256646   -2.498967
   3 C     6.0000    0    12.011  -11.027381   -1.203242   -3.494292
   4 H     1.0000    0     1.008   -6.642408    2.981717   -2.737257
   5 C     6.0000    0    12.011  -12.563691   -0.122490   -5.750107
   6 H     1.0000    0     1.008  -14.483908   -0.915717   -5.728309
   7 N     7.0000    0    14.007  -10.777481   -3.951536   -3.475022
   8 H     1.0000    0     1.008  -12.702739    1.948717   -5.635327
   9 H     1.0000    0     1.008  -11.646197   -0.639957   -7.540783
  10 H     1.0000    0     1.008  -11.930719   -0.591491   -1.721841
  11 H     1.0000    0     1.008  -12.444936   -4.773605   -3.969973
  12 H     1.0000    0     1.008   -9.446443   -4.475173   -4.767940

--------------------------------
INTERNAL COORDINATES (ANGSTROEM)
--------------------------------
 C      0   0   0     0.000000000000     0.00000000     0.00000000
 O      1   0   0     1.217560320146     0.00000000     0.00000000
 O      1   2   0     1.352059122992   123.58816939     0.00000000
 C      1   2   3     1.528421209531   124.59735893   174.42866430
 H      3   1   2     0.973896391548   108.78429399   359.32832930
 C      4   1   2     1.553382684678   107.16562105   269.41011907
 H      6   4   1     1.099481586269   109.57657816   180.02733070
 N      4   1   2     1.460370170488   108.65321190    33.99104464
 H      6   4   1     1.100180910437   111.06090253   299.93188770
 H      6   4   1     1.099376215811   109.84829844    60.56671882
 H      4   1   2     1.101380645333   108.41488351   152.35758409
 H      8   4   1     1.018054747847   110.19753192   198.63183384
 H      8   4   1     1.020296270819   109.16517200   317.14071529

---------------------------
INTERNAL COORDINATES (A.U.)
---------------------------
 C      0   0   0     0.000000000000     0.00000000     0.00000000
 O      1   0   0     2.300855556606     0.00000000     0.00000000
 O      1   2   0     2.555021459325   123.58816939     0.00000000
 C      1   2   3     2.888297503290   124.59735893   174.42866430
 H      3   1   2     1.840397462840   108.78429399   359.32832930
 C      4   1   2     2.935467855217   107.16562105   269.41011907
 H      6   4   1     2.077719087338   109.57657816   180.02733070
 N      4   1   2     2.759699676371   108.65321190    33.99104464
 H      6   4   1     2.079040618495   111.06090253   299.93188770
 H      6   4   1     2.077519966029   109.84829844    60.56671882
 H      4   1   2     2.081307788880   108.41488351   152.35758409
 H      8   4   1     1.923844662770   110.19753192   198.63183384
 H      8   4   1     1.928080527309   109.16517200   317.14071529

------------------------------------------------------------------------------
                   ___                                                        
                  /   \      - P O W E R E D   B Y -                         
                 /     \                                                     
                 |  |  |   _    _      __       _____    __    __             
                 |  |  |  | |  | |    /  \     |  _  \  |  |  /  |          
                  \  \/   | |  | |   /    \    | | | |  |  | /  /          
                 / \  \   | |__| |  /  /\  \   | |_| |  |  |/  /          
                |  |  |   |  __  | /  /__\  \  |    /   |      \           
                |  |  |   | |  | | |   __   |  |    \   |  |\   \          
                \     /   | |  | | |  |  |  |  | |\  \  |  | \   \       
                 \___/    |_|  |_| |__|  |__|  |_| \__\ |__|  \__/        
                                                                              
                      - O R C A' S   B I G   F R I E N D -                    
                                      &                                       
                       - I N T E G R A L  F E E D E R -                       
                                                                              
 v1 FN, 2020, v2 2021, v3 2022-2024                                           
------------------------------------------------------------------------------


----------------------
SHARK INTEGRAL PACKAGE
----------------------

Number of atoms                             ...     13
Number of basis functions                   ...    119
Number of shells                            ...     57
Maximum angular momentum                    ...      2
Integral batch strategy                     ... SHARK/LIBINT Hybrid
RI-J (if used) integral strategy            ... SPLIT-RIJ (Revised 2003 algorithm where possible)
Printlevel                                  ...      1
Contraction scheme used                     ... SEGMENTED contraction
Prescreening option                         ... SCHWARTZ
   Thresh                                   ... 2.500e-11
   Tcut                                     ... 2.500e-12
   Tpresel                                  ... 2.500e-12 
Coulomb Range Separation                    ... NOT USED
Exchange Range Separation                   ... NOT USED
Multipole approximations                    ... NOT USED
Finite Nucleus Model                        ... NOT USED
CABS basis                                  ... NOT available
Auxiliary Coulomb fitting basis             ... AVAILABLE
   # of basis functions in Aux-J            ...    371
   # of shells in Aux-J                     ...    125
   Maximum angular momentum in Aux-J        ...      4
Auxiliary J/K fitting basis                 ... NOT available
Auxiliary Correlation fitting basis         ... NOT available
Auxiliary 'external' fitting basis          ... NOT available

Checking pre-screening integrals            ... done (  0.0 sec) Dimension = 57
   => SHARK Basis and OBASIS are compatible. Storing Pre-screening
Shell pair information
Shell pair cut-off parameter TPreSel        ...   2.5e-12
Total number of shell pairs                 ...      1653
Shell pairs after pre-screening             ...      1592
Total number of primitive shell pairs       ...      8022
Primitive shell pairs kept                  ...      5553
          la=0 lb=0:    502 shell pairs
          la=1 lb=0:    582 shell pairs
          la=1 lb=1:    183 shell pairs
          la=2 lb=0:    190 shell pairs
          la=2 lb=1:    114 shell pairs
          la=2 lb=2:     21 shell pairs

Checking whether 4 symmetric matrices of dimension 119 fit in memory
:Max Core in MB      =   4096.00
 MB in use           =      5.64
 MB left             =   4090.36
 MB needed           =      0.22
 Data fit in memory  = YES
Calculating RI/J V-Matrix + Cholesky decomp.... done (  0.0 sec)
Calculating Nuclear repulsion               ... done (  0.0 sec) ENN=    248.409852039043 Eh

Diagonalization of the overlap matrix:
Smallest eigenvalue                        ... 3.941e-03
Time for diagonalization                   ...    0.001 sec
Threshold for overlap eigenvalues          ... 1.000e-07
Number of eigenvalues below threshold      ... 0
Time for construction of square roots      ...    0.000 sec
Total time needed                          ...    0.001 sec

-------------------
DFT GRID GENERATION
-------------------

General Integration Accuracy     IntAcc      ... 4.388
Radial Grid Type                 RadialGrid  ... OptM3 with GC (2021)
Angular Grid (max. ang.)         AngularGrid ... 4 (Lebedev-302)
Angular grid pruning method      GridPruning ... 4 (adaptive)
Weight generation scheme         WeightScheme... mBecke (2022)
Basis function cutoff            BFCut       ... 1.0000e-11
Integration weight cutoff        WCut        ... 1.0000e-14
Partially contracted basis set               ... off
Rotationally invariant grid construction     ... off
Angular grids for H and He will be reduced by one unit

Total number of grid points                  ...    58960
Total number of batches                      ...      927
Average number of points per batch           ...       63
Average number of grid points per atom       ...     4535
Grids setup in   0.2 sec
Initializing property integral containers    ... done (  0.0 sec)

SHARK setup successfully completed in   0.2 seconds

Maximum memory used throughout the entire STARTUP-calculation: 24.9 MB
Occupation numbers will be reassigned to an Aufbau configuration
             **** ENERGY FILE WAS UPDATED (2.en.tmp) ****
Finished Guess after   0.0 sec
Maximum memory used throughout the entire GUESS-calculation: 9.2 MB
----------------------------------------D-I-I-S--------------------------------------------
Iteration    Energy (Eh)           Delta-E    RMSDP     MaxDP     DIISErr   Damp  Time(sec)
-------------------------------------------------------------------------------------------
               ***  Starting incremental Fock matrix formation  ***
    1    -323.5281672692444204     0.00e+00  2.00e-04  2.82e-03  1.14e-02  0.700   0.2
    2    -323.5284961867532161    -3.29e-04  1.86e-04  2.50e-03  8.79e-03  0.700   0.2
                               ***Turning on AO-DIIS***
    3    -323.5287344561593841    -2.38e-04  1.44e-04  2.01e-03  6.36e-03  0.700   0.2
    4    -323.5288993556442279    -1.65e-04  3.56e-04  4.82e-03  4.52e-03  0.000   0.2
                              *** Initializing SOSCF ***
---------------------------------------S-O-S-C-F--------------------------------------
Iteration    Energy (Eh)           Delta-E    RMSDP     MaxDP     MaxGrad    Time(sec)
--------------------------------------------------------------------------------------
    5    -323.5292855786643145    -3.86e-04  2.49e-05  4.51e-04  4.65e-04     0.2
               *** Restarting incremental Fock matrix formation ***
    6    -323.5292866551906741    -1.08e-06  1.79e-05  4.23e-04  7.33e-05     0.2
    7    -323.5292864196894129     2.36e-07  1.18e-05  3.18e-04  2.35e-04     0.2
    8    -323.5292867838834923    -3.64e-07  9.60e-06  1.80e-04  7.68e-05     0.2
    9    -323.5292867020055496     8.19e-08  6.26e-06  1.32e-04  5.82e-05     0.2
   10    -323.5292868316403769    -1.30e-07  1.28e-06  2.58e-05  3.81e-06     0.2
   11    -323.5292868324435744    -8.03e-10  7.56e-07  1.74e-05  6.57e-06     0.2
                 **** Energy Check signals convergence ****

               *****************************************************
               *                     SUCCESS                       *
               *           SCF CONVERGED AFTER  11 CYCLES          *
               *****************************************************

             **** ENERGY FILE WAS UPDATED (2.en.tmp) ****

----------------
TOTAL SCF ENERGY
----------------

Total Energy       :       -323.52928683321937 Eh           -8803.67947 eV

Components:
Nuclear Repulsion  :        248.40985203904273 Eh            6759.57572 eV
Electronic Energy  :       -571.93913887226199 Eh          -15563.25519 eV
One Electron Energy:       -933.20557901786844 Eh          -25393.81480 eV
Two Electron Energy:        361.26644014560640 Eh            9830.55961 eV

Virial components:
Potential Energy   :       -645.17133721900609 Eh          -17556.00462 eV
Kinetic Energy     :        321.64205038578677 Eh            8752.32515 eV
Virial Ratio       :          2.00586750533759

DFT components:
N(Alpha)           :       24.000006967262 electrons
N(Beta)            :       24.000006967262 electrons
N(Total)           :       48.000013934525 electrons
E(X)               :      -40.710126846785 Eh       
E(C)               :       -2.114910287517 Eh       
E(XC)              :      -42.825037134302 Eh       

---------------
SCF CONVERGENCE
---------------

  Last Energy change         ...    8.0320e-10  Tolerance :   1.0000e-08
  Last MAX-Density change    ...    1.7431e-05  Tolerance :   1.0000e-07
  Last RMS-Density change    ...    7.5646e-07  Tolerance :   5.0000e-09
  Last DIIS Error            ...    4.6515e-04  Tolerance :   5.0000e-07
  Last Orbital Gradient      ...    6.5728e-06  Tolerance :   1.0000e-05
  Last Orbital Rotation      ...    7.3394e-06  Tolerance :   1.0000e-05


Total SCF time: 0 days 0 hours 0 min 2 sec 
Finished LeanSCF after   2.5 sec

Maximum memory used throughout the entire LEANSCF-calculation: 12.9 MB



-------------------------------------------------------------------------------
                          DFT DISPERSION CORRECTION                            
-------------------------------------------------------------------------------
-------------------------   ----------------
Dispersion correction           -0.013234190
-------------------------   ----------------


-------------------------   --------------------
FINAL SINGLE POINT ENERGY      -323.542521022772
-------------------------   --------------------

------------------------------------------------------------------------------
                         ORCA SCF GRADIENT CALCULATION
------------------------------------------------------------------------------

Nuc. rep. gradient        (SHARK) ... done (  0.0 sec)
HCore & Overlap gradient  (SHARK) ... done (  0.0 sec)
Split-RIJ-J gradient      (SHARK) ... done (  0.2 sec)
XC gradient                       ... done (  1.1 sec)
Dispersion correction             ... done (  0.0 sec)

-------------------
DISPERSION GRADIENT
-------------------

   1   C   :   -0.000163222   -0.000529016    0.000495615
   2   O   :   -0.000046785    0.000175261    0.000573899
   3   O   :    0.000572077    0.000018484    0.000243435
   4   C   :   -0.000303324    0.000160633   -0.001293844
   5   H   :    0.000202144   -0.000268541   -0.000158533
   6   C   :   -0.000237361   -0.000075100    0.000517616
   7   H   :    0.000512092    0.001031509   -0.000663869
[...]
   9   2.0000      -0.679862       -18.5000 
  10   2.0000      -0.605334       -16.4720 
  11   2.0000      -0.525399       -14.2968 
  12   2.0000      -0.467423       -12.7192 
  13   2.0000      -0.424840       -11.5605 
  14   2.0000      -0.408831       -11.1249 
  15   2.0000      -0.388943       -10.5837 
  16   2.0000      -0.380145       -10.3443 
  17   2.0000      -0.358280        -9.7493 
  18   2.0000      -0.354305        -9.6411 
  19   2.0000      -0.324804        -8.8384 
  20   2.0000      -0.317231        -8.6323 
  21   2.0000      -0.274307        -7.4643 
  22   2.0000      -0.229082        -6.2336 
  23   2.0000      -0.193681        -5.2703 
  24   0.0000      -0.025825        -0.7027 
  25   0.0000       0.052982         1.4417 
  26   0.0000       0.064760         1.7622 
  27   0.0000       0.112606         3.0642 
  28   0.0000       0.119716         3.2576 
  29   0.0000       0.129012         3.5106 
  30   0.0000       0.143293         3.8992 
  31   0.0000       0.155526         4.2321 
  32   0.0000       0.176754         4.8097 
  33   0.0000       0.186672         5.0796 
  34   0.0000       0.225082         6.1248 
*Only the first 10 virtual orbitals were printed.

                    ********************************
                    * MULLIKEN POPULATION ANALYSIS *
                    ********************************

-----------------------
MULLIKEN ATOMIC CHARGES
-----------------------
   0 C :    0.533060
   1 O :   -0.423559
   2 O :   -0.464363
   3 C :   -0.033197
   4 H :    0.320323
   5 C :   -0.339595
   6 H :    0.113444
   7 N :   -0.563364
   8 H :    0.122617
   9 H :    0.120032
  10 H :    0.130753
  11 H :    0.234629
  12 H :    0.249220
Sum of atomic charges:    0.0000000

--------------------------------
MULLIKEN REDUCED ORBITAL CHARGES
--------------------------------
  0 C s       :     2.990959  s :     2.990959
      pz      :     0.762738  p :     2.357422
      px      :     0.872537
      py      :     0.722147
      dz2     :     0.016421  d :     0.118559
      dxz     :     0.016703
      dyz     :     0.021449
      dx2y2   :     0.038186
      dxy     :     0.025800

  1 O s       :     3.874512  s :     3.874512
      pz      :     1.422102  p :     4.521542
      px      :     1.470657
      py      :     1.628783
      dz2     :     0.005343  d :     0.027505
      dxz     :     0.006998
      dyz     :     0.002811
      dx2y2   :     0.005798
      dxy     :     0.006554

  2 O s       :     3.844178  s :     3.844178
      pz      :     1.715018  p :     4.596785
      px      :     1.479691
      py      :     1.402076
      dz2     :     0.004280  d :     0.023400
      dxz     :     0.002242
      dyz     :     0.005171
      dx2y2   :     0.007273
      dxy     :     0.004434

  3 C s       :     3.201734  s :     3.201734
      pz      :     1.003237  p :     2.775793
      px      :     0.949465
      py      :     0.823091
      dz2     :     0.010345  d :     0.055670
      dxz     :     0.007271
      dyz     :     0.013785
      dx2y2   :     0.012905
      dxy     :     0.011364

  4 H s       :     0.642247  s :     0.642247
      pz      :     0.008975  p :     0.037430
      px      :     0.019467
      py      :     0.008989

  5 C s       :     3.269554  s :     3.269554
      pz      :     0.981298  p :     3.041492
      px      :     1.014605
      py      :     1.045589
      dz2     :     0.008317  d :     0.028549
      dxz     :     0.005776
      dyz     :     0.002782
      dx2y2   :     0.007942
      dxy     :     0.003732

  6 H s       :     0.875244  s :     0.875244
      pz      :     0.002444  p :     0.011313
      px      :     0.005842
      py      :     0.003027

  7 N s       :     3.615912  s :     3.615912
      pz      :     1.598109  p :     3.918926
      px      :     1.207104
      py      :     1.113713
      dz2     :     0.005459  d :     0.028526
      dxz     :     0.006847
      dyz     :     0.004512
      dx2y2   :     0.006717
      dxy     :     0.004991

  8 H s       :     0.866140  s :     0.866140
      pz      :     0.002349  p :     0.011243
      px      :     0.002448
      py      :     0.006445

  9 H s       :     0.868789  s :     0.868789
      pz      :     0.005391  p :     0.011179
      px      :     0.003134
      py      :     0.002653

 10 H s       :     0.858507  s :     0.858507
      pz      :     0.005602  p :     0.010740
      px      :     0.003077
      py      :     0.002061

 11 H s       :     0.741653  s :     0.741653
      pz      :     0.007413  p :     0.023717
      px      :     0.010095
      py      :     0.006209

 12 H s       :     0.726868  s :     0.726868
      pz      :     0.009907  p :     0.023912
      px      :     0.008885
      py      :     0.005120



                     *******************************
                     * LOEWDIN POPULATION ANALYSIS *
                     *******************************

----------------------
LOEWDIN ATOMIC CHARGES
----------------------
   0 C :    0.146799
   1 O :   -0.225188
   2 O :   -0.154346
   3 C :   -0.044600
   4 H :    0.184809
   5 C :   -0.208316
   6 H :    0.072871
   7 N :   -0.260141
   8 H :    0.077883
   9 H :    0.074826
  10 H :    0.081559
  11 H :    0.124028
  12 H :    0.129816

-------------------------------
LOEWDIN REDUCED ORBITAL CHARGES
-------------------------------
  0 C s       :     2.862986  s :     2.862986
      pz      :     0.823641  p :     2.711769
      px      :     1.014208
      py      :     0.873919
      dz2     :     0.034609  d :     0.278446
      dxz     :     0.036986
      dyz     :     0.052897
      dx2y2   :     0.093274
      dxy     :     0.060681

  1 O s       :     3.568146  s :     3.568146
      pz      :     1.433467  p :     4.601164
      px      :     1.535714
      py      :     1.631983
      dz2     :     0.008018  d :     0.055878
      dxz     :     0.015283
      dyz     :     0.006071
      dx2y2   :     0.012684
      dxy     :     0.013822

  2 O s       :     3.496093  s :     3.496093
      pz      :     1.695805  p :     4.609592
      px      :     1.482604
      py      :     1.431183
      dz2     :     0.007368  d :     0.048662
      dxz     :     0.002794
      dyz     :     0.011810
      dx2y2   :     0.016241
      dxy     :     0.010448

  3 C s       :     2.890737  s :     2.890737
      pz      :     1.058928  p :     3.029354
      px      :     1.024575
      py      :     0.945851
      dz2     :     0.022752  d :     0.124509
      dxz     :     0.017274
      dyz     :     0.029069
      dx2y2   :     0.030662
      dxy     :     0.024752

  4 H s       :     0.701409  s :     0.701409
      pz      :     0.025419  p :     0.113782
      px      :     0.063008
      py      :     0.025356

  5 C s       :     2.941812  s :     2.941812
      pz      :     1.053181  p :     3.205960
      px      :     1.065023
      py      :     1.087756
      dz2     :     0.017000  d :     0.060544
      dxz     :     0.013270
      dyz     :     0.006429
      dx2y2   :     0.015942
      dxy     :     0.007903

  6 H s       :     0.888644  s :     0.888644
      pz      :     0.006825  p :     0.038484
      px      :     0.022259
      py      :     0.009400

  7 N s       :     3.216535  s :     3.216535
      pz      :     1.586378  p :     3.987066
      px      :     1.224650
      py      :     1.176038
      dz2     :     0.008423  d :     0.056540
      dxz     :     0.010588
      dyz     :     0.007884
      dx2y2   :     0.017128
      dxy     :     0.012517

  8 H s       :     0.882909  s :     0.882909
      pz      :     0.006610  p :     0.039209
      px      :     0.006860
      py      :     0.025739

  9 H s       :     0.886267  s :     0.886267
      pz      :     0.021108  p :     0.038908
      px      :     0.010101
      py      :     0.007699

 10 H s       :     0.879643  s :     0.879643
      pz      :     0.021204  p :     0.038798
      px      :     0.010710
      py      :     0.006884

 11 H s       :     0.798680  s :     0.798680
      pz      :     0.022029  p :     0.077292
      px      :     0.036846
      py      :     0.018416

 12 H s       :     0.790985  s :     0.790985
      pz      :     0.036826  p :     0.079199
      px      :     0.027718
      py      :     0.014655



                      *****************************
                      * MAYER POPULATION ANALYSIS *
                      *****************************

  NA   - Mulliken gross atomic population
  ZA   - Total nuclear charge
  QA   - Mulliken gross atomic charge
  VA   - Mayer's total valence
  BVA  - Mayer's bonded valence
  FA   - Mayer's free valence

  ATOM       NA         ZA         QA         VA         BVA        FA
  0 C      5.4669     6.0000     0.5331     3.9328     3.9328     0.0000
  1 O      8.4236     8.0000    -0.4236     2.1085     2.1085     0.0000
  2 O      8.4644     8.0000    -0.4644     2.0423     2.0423     0.0000
  3 C      6.0332     6.0000    -0.0332     3.8771     3.8771     0.0000
  4 H      0.6797     1.0000     0.3203     0.9159     0.9159    -0.0000
  5 C      6.3396     6.0000    -0.3396     3.8503     3.8503     0.0000
  6 H      0.8866     1.0000     0.1134     0.9572     0.9572     0.0000
  7 N      7.5634     7.0000    -0.5634     2.8652     2.8652     0.0000
  8 H      0.8774     1.0000     0.1226     0.9570     0.9570     0.0000
  9 H      0.8800     1.0000     0.1200     0.9593     0.9593     0.0000
 10 H      0.8692     1.0000     0.1308     0.9453     0.9453    -0.0000
 11 H      0.7654     1.0000     0.2346     0.9239     0.9239    -0.0000
 12 H      0.7508     1.0000     0.2492     0.9304     0.9304    -0.0000

  Mayer bond orders larger than 0.100000
B(  0-C ,  1-O ) :   1.8999 B(  0-C ,  2-O ) :   1.0800 B(  0-C ,  3-C ) :   0.9266 
B(  2-O ,  4-H ) :   0.8528 B(  3-C ,  5-C ) :   0.9682 B(  3-C ,  7-N ) :   1.0346 
B(  3-C , 10-H ) :   0.9249 B(  5-C ,  6-H ) :   0.9560 B(  5-C ,  8-H ) :   0.9448 
B(  5-C ,  9-H ) :   0.9551 B(  7-N , 11-H ) :   0.9078 B(  7-N , 12-H ) :   0.8885 


-------
TIMINGS
-------

Total SCF time: 0 days 0 hours 0 min 1 sec 

Total time                  ....       1.477 sec
Sum of individual times     ....       1.255 sec  ( 85.0%)

SCF preparation             ....       0.025 sec  (  1.7%)
Fock matrix formation       ....       1.216 sec  ( 82.3%)
  Startup                   ....       0.000 sec  (  0.0% of F)
  Split-RI-J                ....       0.348 sec  ( 28.6% of F)
  XC integration            ....       1.049 sec  ( 86.3% of F)
    XC Preparation          ....       0.000 sec  (  0.0% of XC)
    Basis function eval.    ....       0.377 sec  ( 35.9% of XC)
    Density eval.           ....       0.203 sec  ( 19.4% of XC)
    XC-Functional eval.     ....       0.247 sec  ( 23.6% of XC)
    XC-Potential eval.      ....       0.192 sec  ( 18.3% of XC)
Diagonalization             ....       0.000 sec  (  0.0%)
Density matrix formation    ....       0.001 sec  (  0.1%)
Total Energy calculation    ....       0.000 sec  (  0.0%)
Population analysis         ....       0.006 sec  (  0.4%)
Orbital Transformation      ....       0.001 sec  (  0.1%)
Orbital Orthonormalization  ....       0.000 sec  (  0.0%)
DIIS solution               ....       0.001 sec  (  0.1%)
SOSCF solution              ....       0.005 sec  (  0.3%)
Finished LeanSCF after   1.5 sec

Maximum memory used throughout the entire LEANSCF-calculation: 13.2 MB



-------------------------------------------------------------------------------
                          DFT DISPERSION CORRECTION                            
-------------------------------------------------------------------------------
Active option DFTDOPT                   ...         2   
Final C6-coefficient scaling factor     ...     1.250
Final VDW-radii scaling factor          ...     1.100
Damping factor alpha                    ...    20.000
-------------------------   ----------------
Dispersion correction           -0.013242440
-------------------------   ----------------


-------------------------   --------------------
FINAL SINGLE POINT ENERGY      -323.543002538407
-------------------------   --------------------

                                *** OPTIMIZATION RUN DONE ***


------------------------------------------------------------------------------
                              ORCA PROPERTY CALCULATIONS
------------------------------------------------------------------------------

GBWName                                 ... 2.gbw
Number of atoms                         ...     13
Number of basis functions               ...    119
Max core memory                         ...   4096 MB

Electric properties:
Dipole moment                           ... YES
Quadrupole moment                       ...  NO
Static polarizability (Dipole/Dipole)   ...  NO
Static polarizability (Dipole/Quad.)    ...  NO
Static polarizability (Quad./Quad.)     ...  NO
Static polarizability (Velocity)        ...  NO
Static hyperpolarizability              ...  NO

Atomic electric properties:
Dipole moment                           ...  NO
Quadrupole moment                       ...  NO
Static polarizability                   ...  NO

Choice of electric origin               ... Center of mass
Position of electric origin             ...    -9.568681    -0.637529    -3.930901

General magnetic properties:
Magnetizability                         ...  NO

EPR properties:
g-Tensor (aka g-matrix)                 ...  NO
Zero-Field splitting spin-orbit         ...  NO
Zero-field splitting spin-spin          ...  NO
Hyperfine couplings                     ...  NO (   0 nuclei)
Quadrupole couplings                    ...  NO (   0 nuclei)
Contact density                         ...  NO (   0 nuclei)

NMR properties:
Chemical shifts                         ...  NO (   0 nuclei)
Spin-rotation constants                 ...  NO (   0 nuclei)
Spin-spin couplings                     ...  NO (   0 nuclei,    0 pairs)

Choice of magnetic origin               ... GIAO
Position of magnetic origin             ...     0.000000     0.000000     0.000000

Properties with geometric perturbations:
SCF Hessian                             ...  NO
IR spectrum                             ...  NO
VCD spectrum                            ...  NO
X-ray spectroscopy properties:
SCF XES/XAS/RIXS spectra                ...  NO

SCF SOC stabilization energy            ...  NO
Diagonal Born-Oppenheimer correction    ...  NO

-------------
DIPOLE MOMENT
-------------

Method             : SCF
Type of density    : Electron Density
Multiplicity       :   1
Irrep              :   0
Energy             :  -323.5297600986341990 Eh
Basis              : AO
                                X                 Y                 Z
Electronic contribution:      5.544329517       1.472071520       2.031319127
Nuclear contribution   :     -6.132083691      -1.004372749      -2.315031780
                        -----------------------------------------
Total Dipole Moment    :     -0.587754174       0.467698771      -0.283712654
                        -----------------------------------------
Magnitude (a.u.)       :      0.802925887
Magnitude (Debye)      :      2.040875413



--------------------
Rotational spectrum 
--------------------
 
Rotational constants in cm-1:             0.166318             0.098827             0.077789 
Rotational constants in MHz :          4986.080996          2962.761751          2332.047405 

Dipole components along the rotational axes: 
x,y,z [a.u.] :    -0.213068    -0.747636    -0.200829 
x,y,z [Debye]:    -0.541576    -1.900340    -0.510467 

 

Dipole moment calculation done in   0.0 sec 

Maximum memory used throughout the entire PROP-calculation: 7.4 MB

--------------------------------
SUGGESTED CITATIONS FOR THIS RUN
--------------------------------

Below you find a list of papers that are relevant to this ORCA run
We neither can nor want to force you to cite these papers, but we appreciate if you do
You receive ORCA, which is the product of decades of hard work by many enthusiastic individuals, for free
The only thing we kindly ask in return is that you cite our papers,
We deeply appreciate it, if you show your appreciation for ORCA by not just citing the generic ORCA reference.

Please note that relegating all ORCA citations to the supporting information does *not* help us.
SI sections are not indexed - citations you put there will not count into any citation statistics
But we need these citations in order to attract the funding resources that allow us to do what we are doing

Therefore, if you are a happy ORCA user, please consider citing a few of the papers listed below in the main body of your paper

In addition to the list printed below, the program has created the file 2.bibtex that contains the list in bibtex format
You can import this file easily into all common literature databanks and citation aid programs


List of essential papers. We consider these as the minimum necessary citations

  1. Neese, F.
     Software update: the ORCA program system, version 6.0
     WIRES Comput. Molec. Sci. 2025 15(1), e70019
     doi.org/10.1002/wcms.7019

List of papers to cite with high priority. The work reported in these papers was absolutely
necessary for this run to complete.
Our perspective: the developers of density functionals and basis sets usually get cited in chemistry papers
Good! But without the algorithms to do something with them, the functionals or basis sets would not do anything.
Hence, in our opinion, the algorithm design and method developments papers are equally worthy of getting cited

  1. Neese, F.
     An improvement of the resolution of the identity approximation for the formation of the Coulomb matrix
     J. Comp. Chem. 2003 24(14), 1740-1747
     doi.org/10.1002/jcc.10318
  2. Grimme, S.
     Semiempirical GGA-type density functional constructed with a long-range dispersion correction
     J.Comput.Chem. 2006 27(15), 1787-1799
     doi.org/10.1002/jcc.20495
  3. Neese, F.
     The SHARK Integral Generation and Digestion System
     J. Comp. Chem. 2022 44(3), 381
     doi.org/10.1002/jcc.26942

List of suggested additional citations. These are papers that are important in the 'surrounding' of 
of this run, or papers that preceded the highly important papers. If you like your results we are grateful for a citation.

  1. Neese, F.
     The ORCA program system
     WIRES Comput. Molec. Sci. 2012 2(1), 73-78
     doi.org/10.1002/wcms.81
  2. Neese, F.
     Software update: the ORCA program system, version 4.0
     WIRES Comput. Molec. Sci. 2018 8(1), 1-6
     doi.org/10.1002/wcms.1327
  3. Neese, F.; Wennmohs, F.; Becker, U.; Riplinger, C.
     The ORCA quantum chemistry program package
     J. Chem. Phys. 2020 152(22), 224108
     doi.org/10.1063/5.0004608
  4. Neese, F.
     Software update: The ORCA program system—Version 5.0
     WIRES Comput. Molec. Sci. 2022 12(1), e1606
     doi.org/10.1002/wcms.1606

List of optional additional citations

  1. Neese, F.
     Approximate second-order SCF convergence for spin unrestricted wavefunctions
     Chem. Phys. Lett. 2000 325(1-3), 93-98
     doi.org/10.1016/s0009-2614(00)00662-x

Timings for individual modules:

Sum of individual times          ...       32.306 sec (=   0.538 min)
Startup calculation              ...        2.272 sec (=   0.038 min)   7.0 %
SCF iterations                   ...       18.850 sec (=   0.314 min)  58.3 %
Property calculations            ...        0.041 sec (=   0.001 min)   0.1 %
SCF Gradient evaluation          ...       11.135 sec (=   0.186 min)  34.5 %
Geometry relaxation              ...        0.009 sec (=   0.000 min)   0.0 %
                             ****ORCA TERMINATED NORMALLY****
TOTAL RUN TIME: 0 days 0 hours 0 minutes 32 seconds 500 msec
