
                                 *****************
                                 * O   R   C   A *
                                 *****************

                                            #,                                       
                                            ###                                      
                                            ####                                     
                                            #####                                    
                                            ######                                   
                                           ########,                                 
                                     ,,################,,,,,                         
                               ,,#################################,,                 
                          ,,##########################################,,             
                       ,#########################################, ''#####,          
                    ,#############################################,,   '####,        
                  ,##################################################,,,,####,       
                ,###########''''           ''''###############################       
              ,#####''   ,,,,##########,,,,          '''####'''          '####       
            ,##' ,,,,###########################,,,                        '##       
           ' ,,###''''                  '''############,,,                           
         ,,##''                                '''############,,,,        ,,,,,,###''
      ,#''                                            '''#######################'''  
     '                                                          ''''####''''         
             ,#######,   #######,   ,#######,      ##                                
            ,#'     '#,  ##    ##  ,#'     '#,    #''#        ,####,    ,#,          
            ##       ##  ##   ,#'  ##            #'  '#       #'       ,# #          
            ##       ##  #######   ##           ,######,      #####,      #          
            '#,     ,#'  ##    ##  '#,     ,#' ,#      #,     #,   #      #          
             '#######'   ##     ##  '#######'  #'      '#     '####' #    #          



                #########################################################
                #                        -***-                          #
                #          Department of theory and spectroscopy        #
                #                                                       #
                #                      Frank Neese                      #
                #                                                       #
                #     Directorship, Architecture, Infrastructure        #
                #                    SHARK, DRIVERS                     #
                #        Core code/Algorithms in most modules           #
                #                                                       #
                #        Max Planck Institute fuer Kohlenforschung      #
                #                Kaiser Wilhelm Platz 1                 #
                #                 D-45470 Muelheim/Ruhr                 #
                #                      Germany                          #
                #                                                       #
                #                  All rights reserved                  #
                #                        -***-                          #
                #########################################################


                         Program Version 6.1.0  -  RELEASE   -
                                (GIT: $679e74b$)
                          ($2025-06-10 18:02:51 +0200$)


 With contributions from (in alphabetic order):
[Max-Planck-Institut fuer Kohlenforschung]                               
  Daniel Aravena         : Magnetic Suceptibility                        
  Michael Atanasov       : Ab Initio Ligand Field Theory (pilot matlab implementation)
  Alexander A. Auer      : GIAO ZORA, VPT2 properties, NMR spectrum      
  Ute Becker             : All parallelization in ORCA, NUMFREQ, NUMCALC 
  Giovanni Bistoni       : ED, misc. LED, open-shell LED, HFLD           
  Dmytro Bykov           : pre 5.0 version of the SCF Hessian            
  Marcos Casanova-Páez   : Triplet and SCS-CIS(D). UHF-(DLPNO)-IP/EA/STEOM-CCSD. UHF-CVS-IP/STEOM-CCSD   
  Vijay G. Chilkuri      : MRCI spin determinant printing, contributions to CSF-ICE 
  Pauline Colinet        : FMM embedding                                 
  Dipayan Datta          : RHF DLPNO-CCSD density                        
  Achintya Kumar Dutta   : EOM-CC, STEOM-CC                              
  Nicolas Foglia         : Exact transition moments, OPA infrastructure, MCD improvements    
  Dmitry Ganyushin       : Spin-Orbit,Spin-Spin,Magnetic field MRCI      
  Miquel Garcia-Rates    : C-PCM and meta-GGA Hessian, CCSD/C-PCM, Gaussian charge scheme 
  Tiago L. C. Gouveia    : GS-ROHF, GS-ROCIS                             
  Yang Guo               : DLPNO-NEVPT2, F12-NEVPT2, CIM, IAO-localization        
  Andreas Hansen         : Spin unrestricted coupled pair/coupled cluster methods 
  Ingolf Harden          : AUTO-CI MPn and infrastructure                
  Benjamin Helmich-Paris : MC-RPA, TRAH-(SCF,CASSCF), AVAS, COSX integrals, SCF dyn. polar., MC-PDFT, srDFT 
  Lee Huntington         : MR-EOM, pCC                                   
  Robert Izsak           : Overlap fitted RIJCOSX, COSX-SCS-MP3, EOM     
  Riya Kayal             : Wick's Theorem for AUTO-CI, AUTO-CI UHF-CCSDT 
  Emily Kempfer          : AUTO-CI RHF CISDT and CCSDT, approximate NEVPT4
  Christian Kollmar      : KDIIS, OOCD, Brueckner-CCSD(T), CCSD density, CASPT2, CASPT2-K, improved NEVPT2 
  Axel Koslowski         : Symmetry handling                             
  Simone Kossmann        : meta-GGA functionals, TD-DFT gradient, OOMP2, (MP2 Hessian; deprecated post 5.0) 
  Lucas Lang             : DCDCAS, Hyperfine gauge corrections, ICE-SOC+SSC
  Marvin Lechner         : AUTO-CI (C++ implementation), FIC-MRCC        
  Spencer Leger          : CASSCF response                               
  Dagmar Lenk            : GEPOL surface, SMD, ORCA-2-JSON               
  Dimitrios Liakos       : Extrapolation schemes; Compound Job, Property file
  Dimitrios Manganas     : Further ROCIS development; embedding schemes. LFT, Crystal Embedding 
  Dimitrios Pantazis     : SARC Basis sets                               
  Anastasios Papadopoulos: AUTO-CI, single reference methods and gradients 
  Taras Petrenko         : pre 6.0 DFT Hessian and TD-DFT gradient,  ECA, NRVS 
  Petra Pikulova         : Analytic Raman intensities                    
  Peter Pinski           : DLPNO-MP2, DLPNO-MP2 Gradient                 
  Shashank Vittal Rao    : ES-AILFT, MagRelax                            
  Christoph Reimann      : Effective Core Potentials                     
  Marius Retegan         : Local ZFS, SOC                                
  Christoph Riplinger    : Optimizer, TS searches, QM/MM, DLPNO-CCSD(T), (RO)-DLPNO pert. Triples 
  Michael Roemelt        : Original ROCIS implementation, recursive CI coupling coefficients
  Masaaki Saitow         : Open-shell DLPNO-CCSD energy and density      
  Barbara Sandhoefer     : DKH picture change effects                    
  Yorick L. A. Schmerwitz: GMF and freeze-and-release deltaSCF, NEB S-IDPP initial path                    
  Kantharuban Sivalingam : CASSCF convergence/infrastructure, NEVPT2, NEVPT3, NEVPT4(SD), FIC-MRCI and CEPA variants
  Bernardo de Souza      : ESD, SOC TD-DFT                               
  Georgi L. Stoychev     : AutoAux, RI-MP2 NMR, DLPNO-MP2 response, X2C  
  Van Anh Tran           : RI-MP2 g-tensors                              
  Willem Van den Heuvel  : Paramagnetic NMR                              
  Zikuan Wang            : NOTCH, Electric field optimization            
  Frank Wennmohs         : Technical directorship and infrastructure     
  Hang Xu                : AUTO-CI-Response properties                   
                                                                         
[FACCTs GmbH]                                                            
  Markus Bursch, Nicolas Foglia, Miquel Garcia-Rates, Ingolf Harden, Hagen Neugebauer, Anastasios Papadopoulos, 
  Christoph Riplinger, Bernardo de Souza, Georgi L. Stoychev                                                    
                                                                 
  APM, various basis sets, CI-OPT, improved COSX, DLPNO-Multilevel,           
  DOCKER, DRACO, updates on ESD, Fragmentator, GOAT, IRC, LR-CPCM, L-BFGS, MBIS, meta-GGA TD-DFT gradient, ML-optimized integration grids, 
  MM, NACMEs, nearIR, NEB, NEB-TS, NL-DFT gradient (VV10), 2- and 3-layer-ONIOM, interface openCOSMO-RS, QMMM,   
  Crystal-QMMM, RESP, rigid body optimization, SF, symmetry and pop. for TD-DFT, various functionals, SOLVATOR                                   
                                                                         
[Other institutions]                                                     
  V. Asgeirsson          : NEB                                           
  Christoph Bannwarth    : sTDA-DFT, sTD-DFT, PBEh-3c, B97-3c, D3        
  Giovanni Bistoni       : ETS/NOCV, ADLD/ADEX, COVALED                  
  Martin Brehm           : Molecular dynamics                            
  Ronald Cardenas        : ETS/NOCV                                      
  Martina Colucci        : COVALED                                       
  Sebastian Ehlert       : rSCAN, r2SCAN, r2SCAN-3c, D4, dhf basis sets  
  Marvin Friede          : D4 for Fr, Ra, Ac-Lr                          
  Lars Goerigk           : TD-DFT with DH, B97 family of functionals     
  Stefan Grimme          : VdW corrections, initial TS optimization, DFT functionals, gCP, sTDA/sTD-DF 
  Waldemar Hujo          : DFT-NL                                        
  H. Jonsson             : NEB                                           
  Holger Kruse           : gCP                                           
  Marcel Mueller         : wB97X-3c, vDZP basis set                      
  Hagen Neugebauer       : wr2SCAN, Native XTB                           
  Gianluca Regni         : ADLD/ADEX                                     
  Tobias Risthaus        : pre 6.0 range-separated hybrid DFT and stability analysis
  Lukas Wittmann         : regularized MP2, r2SCAN double-hybrids, wr2SCAN        
                                                                         
We gratefully acknowledge several colleagues who have allowed us to      
interface, adapt or use parts of their codes:                            
  Ed Valeev, F. Pavosevic, A. Kumar             : LibInt (2-el integral package), F12 methods 
  Garnet Chan, S. Sharma, J. Yang, R. Olivares  : DMRG                   
  Ulf Ekstrom                                   : XCFun DFT Library      
  Mihaly Kallay                                 : mrcc  (arbitrary order and MRCC methods)
  Frank Weinhold                                : gennbo (NPA and NBO analysis)           
  Simon Mueller                                 : openCOSMO-RS                            
  Christopher J. Cramer and Donald G. Truhlar   : smd solvation model                     
  S Lehtola, MJT Oliveira, MAL Marques          : LibXC Library                           
  Liviu Ungur et al                             : ANISO software                          


 Your calculation uses the libint2 library for the computation of 2-el integrals
 For citations please refer to: http://libint.valeyev.net

 Your ORCA version has been built with support for libXC version: 7.0.0
 For citations please refer to: https://libxc.gitlab.io

 This ORCA versions uses:
   CBLAS   interface :  Fast vector & matrix operations
   LAPACKE interface :  Fast linear algebra routines
   SCALAPACK package :  Parallel linear algebra routines
   Shared memory     :  Shared parallel matrices
   BLAS/LAPACK       :  OpenBLAS 0.3.29  USE64BITINT DYNAMIC_ARCH NO_AFFINITY Haswell SINGLE_THREADED
        Core in use  :  Haswell
   Copyright (c) 2011-2014, The OpenBLAS Project


  ***********************************
  * Starting time: Wed Aug 13 12:00:16 2025
  * Host name:     CHEMLAB02
  * Process ID:    1530587
  * Working dir.:  /home/vivek/mm-project/vivek/B97-D/c/3
  ***********************************



***************************************
The coordinates will be read from file: /home/vivek/mm-project/vivek/xtb-goat/c/C_CONF/3.xyz
***************************************


Your calculation utilizes empirical dispersion correction


Warning: RI is on but no J-basis has been assigned. Assigning Def2/J (nothing to worry about!)
================================================================================

----- Orbital basis set information -----
Your calculation utilizes the basis: 6-31G**
   H-He, Li-Ne : W. J. Hehre, R. Ditchfield and J.A. Pople, J. Chem. Phys. 56, 2257 (1972).
                 Note: He and Ne are unpublished basis sets taken from the Gaussian program.
                 Note: Li and B from J. D. Dill and J. A. Pople, J. Chem. Phys. 62, 2921 (1975).
   Na - Ar     : M. M. Francl, W. J. Pietro, W. J. Hehre, J. S. Binkley, M. S. Gordon, 
                 D. J. DeFrees and J. A. Pople, J. Chem. Phys. 77, 3654 (1982).
   K - Zn      : V. A. Rassolov, J. A. Pople, M. A. Ratner, and T. L. Windus, J. Chem. Phys. 109, 1223 (1998).

----- AuxJ basis set information -----
Your calculation utilizes the auxiliary basis: def2/J
   H-Rn: F. Weigend, Phys. Chem. Chem. Phys. 8, 1057 (2006).
   Fr-Lr: K. Eichkorn, F. Weigend, O. Treutler, R. Ahlrichs; Theor. Chem. Acc. 97, 119 (1997).

================================================================================
                                        WARNINGS
                       Please study these warnings very carefully!
================================================================================


INFO   : The exchange functional is Grimme's B97(-D)
         As described in S. Grimme, J. Comput. Chem. 27, 1787 (2006).
         Note that this functional defaults to a pure GGA. 

INFO   : The correlation functional is Grimme's B97(-D)
         As described in S. Grimme, J. Comput. Chem. 27, 1787 (2006).

================================================================================
                                       INPUT FILE
================================================================================
NAME = 3.inp
|  1> ! B97-D 6-31G** 
|  2> 
|  3> * xyzfile 0 1 /home/vivek/mm-project/vivek/xtb-goat/c/C_CONF/3.xyz
|  4> 
|  5>                          ****END OF INPUT****
================================================================================

                       ****************************
                       * Single Point Calculation *
                       ****************************

---------------------------------
CARTESIAN COORDINATES (ANGSTROEM)
---------------------------------
  H     -0.998915    1.963528    1.785494
  C     -2.845195    1.195860    1.043142
  H     -3.465796    1.809363    1.693288
  H     -4.049003    2.166732   -0.745638
  O     -0.375437   -0.183676    0.432425
  C     -1.495989    1.886639    0.810729
  H     -0.842008    3.762752    0.357600
  S     -3.771223    0.889871   -0.499962
  N     -1.692172    3.217404    0.272764
  H     -1.891218    3.147355   -0.722319
  C     -0.618901    1.017632   -0.093140
  H     -2.691050    0.215096    1.489793
  O     -0.188829    1.378315   -1.154503
  H      0.159001   -0.720338   -0.175199

----------------------------
CARTESIAN COORDINATES (A.U.)
----------------------------
  NO LB      ZA    FRAG     MASS         X           Y           Z
   0 H     1.0000    0     1.008   -1.887675    3.710530    3.374095
   1 C     6.0000    0    12.011   -5.376639    2.259848    1.971252
   2 H     1.0000    0     1.008   -6.549406    3.419201    3.199851
   3 H     1.0000    0     1.008   -7.651506    4.094530   -1.409052
   4 O     8.0000    0    15.999   -0.709474   -0.347097    0.817165
   5 C     6.0000    0    12.011   -2.827010    3.565231    1.532056
   6 H     1.0000    0     1.008   -1.591165    7.110571    0.675767
   7 S    16.0000    0    32.060   -7.126578    1.681613   -0.944791
   8 N     7.0000    0    14.007   -3.197741    6.080013    0.515450
   9 H     1.0000    0     1.008   -3.573885    5.947639   -1.364985
  10 C     6.0000    0    12.011   -1.169553    1.923046   -0.176009
  11 H     1.0000    0     1.008   -5.085348    0.406473    2.815300
  12 O     8.0000    0    15.999   -0.356835    2.604638   -2.181695
  13 H     1.0000    0     1.008    0.300468   -1.361241   -0.331078

--------------------------------
INTERNAL COORDINATES (ANGSTROEM)
--------------------------------
 H      0   0   0     0.000000000000     0.00000000     0.00000000
 C      1   0   0     2.132873866226     0.00000000     0.00000000
 H      2   1   0     1.088220115714    94.74999524     0.00000000
 H      2   1   3     2.364631093819   123.79331624    88.35354208
 O      1   2   3     2.613427654695    74.37128336   165.91629855
 C      1   2   3     1.096887511265    43.38054489   237.06037607
 H      6   1   2     2.037846433489    89.29159889   139.56904211
 S      4   2   1     1.329620995647    50.17680590   135.68502965
 N      7   6   1     1.013597394536    41.76414414   223.51734700
 H      9   7   6     1.017210432419   106.44268508   241.74135431
 C      5   1   2     1.333654207388    54.57803049    80.67774934
 H      2   1   3     1.088648436540    93.37598243   249.49956935
 O     11   5   1     1.200644081669   123.61223920   155.42080399
 H      5   1   2     0.970997756978   155.42074693   139.52411653

---------------------------
INTERNAL COORDINATES (A.U.)
---------------------------
 H      0   0   0     0.000000000000     0.00000000     0.00000000
 C      1   0   0     4.030547485365     0.00000000     0.00000000
 H      2   1   0     2.056437992123    94.74999524     0.00000000
 H      2   1   3     4.468505175072   123.79331624    88.35354208
 O      1   2   3     4.938662538189    74.37128336   165.91629855
 C      1   2   3     2.072816996009    43.38054489   237.06037607
 H      6   1   2     3.850971662283    89.29159889   139.56904211
 S      4   2   1     2.512619543684    50.17680590   135.68502965
 N      7   6   1     1.915421485729    41.76414414   223.51734700
 H      9   7   6     1.922249137840   106.44268508   241.74135431
 C      5   1   2     2.520241209315    54.57803049    80.67774934
 H      2   1   3     2.057247401182    93.37598243   249.49956935
 O     11   5   1     2.268888498668   123.61223920   155.42080399
 H      5   1   2     1.834919837341   155.42074693   139.52411653

---------------------
BASIS SET INFORMATION
---------------------
There are 5 groups of distinct atoms

 Group   1 Type H   : 4s1p contracted to 2s1p pattern {31/1}
 Group   2 Type C   : 10s4p1d contracted to 3s2p1d pattern {631/31/1}
 Group   3 Type O   : 10s4p1d contracted to 3s2p1d pattern {631/31/1}
 Group   4 Type S   : 16s10p1d contracted to 4s3p1d pattern {6631/631/1}
 Group   5 Type N   : 10s4p1d contracted to 3s2p1d pattern {631/31/1}

Atom   0H    basis set group =>   1
Atom   1C    basis set group =>   2
Atom   2H    basis set group =>   1
Atom   3H    basis set group =>   1
Atom   4O    basis set group =>   3
Atom   5C    basis set group =>   2
Atom   6H    basis set group =>   1
Atom   7S    basis set group =>   4
Atom   8N    basis set group =>   5
Atom   9H    basis set group =>   1
Atom  10C    basis set group =>   2
Atom  11H    basis set group =>   1
Atom  12O    basis set group =>   3
Atom  13H    basis set group =>   1
---------------------------------
AUXILIARY/J BASIS SET INFORMATION
---------------------------------
There are 5 groups of distinct atoms

 Group   1 Type H   : 5s2p1d contracted to 3s1p1d pattern {311/2/1}
 Group   2 Type C   : 12s5p4d2f1g contracted to 6s4p3d1f1g pattern {711111/2111/211/2/1}
 Group   3 Type O   : 12s5p4d2f1g contracted to 6s4p3d1f1g pattern {711111/2111/211/2/1}
 Group   4 Type S   : 14s5p5d2f1g contracted to 8s4p3d1f1g pattern {71111111/2111/311/2/1}
 Group   5 Type N   : 12s5p4d2f1g contracted to 6s4p3d1f1g pattern {711111/2111/211/2/1}

Atom   0H    basis set group =>   1
Atom   1C    basis set group =>   2
Atom   2H    basis set group =>   1
Atom   3H    basis set group =>   1
Atom   4O    basis set group =>   3
Atom   5C    basis set group =>   2
Atom   6H    basis set group =>   1
Atom   7S    basis set group =>   4
Atom   8N    basis set group =>   5
Atom   9H    basis set group =>   1
Atom  10C    basis set group =>   2
Atom  11H    basis set group =>   1
Atom  12O    basis set group =>   3
Atom  13H    basis set group =>   1
------------------------------------------------------------------------------
                             ORCA STARTUP CALCULATIONS
                           -- RI-GTO INTEGRALS CHOSEN --
------------------------------------------------------------------------------
------------------------------------------------------------------------------
                   ___                                                        
                  /   \      - P O W E R E D   B Y -                         
                 /     \                                                     
                 |  |  |   _    _      __       _____    __    __             
                 |  |  |  | |  | |    /  \     |  _  \  |  |  /  |          
                  \  \/   | |  | |   /    \    | | | |  |  | /  /          
                 / \  \   | |__| |  /  /\  \   | |_| |  |  |/  /          
                |  |  |   |  __  | /  /__\  \  |    /   |      \           
                |  |  |   | |  | | |   __   |  |    \   |  |\   \          
                \     /   | |  | | |  |  |  |  | |\  \  |  | \   \       
                 \___/    |_|  |_| |__|  |__|  |_| \__\ |__|  \__/        
                                                                              
                      - O R C A' S   B I G   F R I E N D -                    
                                      &                                       
                       - I N T E G R A L  F E E D E R -                       
                                                                              
 v1 FN, 2020, v2 2021, v3 2022-2024                                           
------------------------------------------------------------------------------


----------------------
SHARK INTEGRAL PACKAGE
----------------------

Number of atoms                             ...     14
Number of basis functions                   ...    137
Number of shells                            ...     65
Maximum angular momentum                    ...      2
Integral batch strategy                     ... SHARK/LIBINT Hybrid
RI-J (if used) integral strategy            ... SPLIT-RIJ (Revised 2003 algorithm where possible)
Printlevel                                  ...      1
Contraction scheme used                     ... SEGMENTED contraction
Prescreening option                         ... SCHWARTZ
   Thresh                                   ... 1.000e-10
   Tcut                                     ... 1.000e-11
   Tpresel                                  ... 1.000e-11 
Coulomb Range Separation                    ... NOT USED
Exchange Range Separation                   ... NOT USED
Multipole approximations                    ... NOT USED
Finite Nucleus Model                        ... NOT USED
CABS basis                                  ... NOT available
Auxiliary Coulomb fitting basis             ... AVAILABLE
   # of basis functions in Aux-J            ...    422
   # of shells in Aux-J                     ...    142
   Maximum angular momentum in Aux-J        ...      4
Auxiliary J/K fitting basis                 ... NOT available
Auxiliary Correlation fitting basis         ... NOT available
Auxiliary 'external' fitting basis          ... NOT available

Checking pre-screening integrals            ... done (  0.0 sec) Dimension = 65
   => SHARK Basis and OBASIS are compatible. Storing Pre-screening
Shell pair information
Shell pair cut-off parameter TPreSel        ...   1.0e-11
Total number of shell pairs                 ...      2145
Shell pairs after pre-screening             ...      2011
Total number of primitive shell pairs       ...     11826
Primitive shell pairs kept                  ...      7436
          la=0 lb=0:    618 shell pairs
          la=1 lb=0:    734 shell pairs
          la=1 lb=1:    237 shell pairs
          la=2 lb=0:    243 shell pairs
          la=2 lb=1:    151 shell pairs
          la=2 lb=2:     28 shell pairs

Checking whether 4 symmetric matrices of dimension 137 fit in memory
:Max Core in MB      =   4096.00
 MB in use           =      6.21
 MB left             =   4089.79
 MB needed           =      0.29
 Data fit in memory  = YES
Calculating RI/J V-Matrix + Cholesky decomp.... done (  0.0 sec)
Calculating Nuclear repulsion               ... done (  0.0 sec) ENN=    386.883511965239 Eh

Diagonalization of the overlap matrix:
Smallest eigenvalue                        ... 3.479e-03
Time for diagonalization                   ...    0.001 sec
Threshold for overlap eigenvalues          ... 1.000e-07
Number of eigenvalues below threshold      ... 0
Time for construction of square roots      ...    0.000 sec
Total time needed                          ...    0.001 sec

-------------------
DFT GRID GENERATION
-------------------

General Integration Accuracy     IntAcc      ... 4.388
Radial Grid Type                 RadialGrid  ... OptM3 with GC (2021)
Angular Grid (max. ang.)         AngularGrid ... 4 (Lebedev-302)
Angular grid pruning method      GridPruning ... 4 (adaptive)
Weight generation scheme         WeightScheme... mBecke (2022)
Basis function cutoff            BFCut       ... 1.0000e-10
Integration weight cutoff        WCut        ... 1.0000e-14
Partially contracted basis set               ... off
Rotationally invariant grid construction     ... off
Angular grids for H and He will be reduced by one unit

Total number of grid points                  ...    66141
Total number of batches                      ...     1043
Average number of points per batch           ...       63
Average number of grid points per atom       ...     4724
Grids setup in   0.2 sec
Initializing property integral containers    ... done (  0.0 sec)

SHARK setup successfully completed in   0.3 seconds

Maximum memory used throughout the entire STARTUP-calculation: 28.0 MB
-------------------------------------------------------------------------------
                                 ORCA GUESS
                   Start orbitals & Density for SCF / CASSCF
-------------------------------------------------------------------------------

------------
SCF SETTINGS
------------
Hamiltonian:
 Density Functional     Method          .... DFT(GTOs)
 Exchange Functional    Exchange        .... B97(D)
 Correlation Functional Correlation     .... B97(D)
 Gradients option       PostSCFGGA      .... off
 RI-approximation to the Coulomb term is turned on
   Number of AuxJ basis functions       .... 422


General Settings:
 Integral files         IntName         .... 3
 Hartree-Fock type      HFTyp           .... RHF
 Total Charge           Charge          ....    0
 Multiplicity           Mult            ....    1
 Number of Electrons    NEL             ....   64
 Basis Dimension        Dim             ....  137
 Nuclear Repulsion      ENuc            ....    386.8835119652 Eh

Convergence Acceleration:
 AO-DIIS                CNVDIIS         .... on
   Start iteration      DIISMaxIt       ....    12
   Startup error        DIISStart       ....  0.200000
   # of expansion vecs  DIISMaxEq       ....     5
   Bias factor          DIISBfac        ....   1.050
   Max. coefficient     DIISMaxC        ....  10.000
 MO-DIIS                CNVKDIIS        .... off
 Trust-Rad. Augm. Hess. CNVTRAH         .... auto
   Auto Start mean grad. ratio tolernc. ....  1.125000
   Auto Start start iteration           ....    50
   Auto Start num. interpolation iter.  ....    10
   Max. Number of Micro iterations      ....    24
   Max. Number of Macro iterations      .... Maxiter - #DIIS iter
   Number of Davidson start vectors     ....     2
   Converg. threshold    (grad. norm)   ....   5.000e-05
   Grad. Scal. Fac. for Micro threshold ....   0.100
   Minimum threshold for Micro iter.    ....   1.000e-02
   NR start threshold (gradient norm)   ....   1.000e-04
   Initial trust radius                 ....   0.400
   Minimum AH scaling param. (alpha)    ....   1.000
   Maximum AH scaling param. (alpha)    .... 1000.000
   Quad. conv. algorithm                .... NR
   White noise on init. David. guess    .... on
   Maximum white noise                  ....   0.010
   Pseudo random numbers                .... off
   Inactive MOs                         .... canonical
   Orbital update algorithm             .... Taylor
   Preconditioner                       .... Diag
   Full preconditioner red. dimension   ....   250
 SOSCF                 CNVSOSCF           .... on
   Start iteration     SOSCFMaxIt         ....   150
   Startup grad/error  SOSCFStart         ....  0.003300
   Hessian update      SOSCFHessUp        .... L-BFGS
   Autom. constraints  SOSCFAutoConstrain .... off
 Level Shifting         CNVShift        .... on
   Level shift para.    LevelShift      ....    0.2500
   Turn off err/grad.   ShiftErr        ....    0.0010
 Zerner damping         CNVZerner       .... off
 Static damping         CNVDamp         .... on
   Fraction old density DampFac         ....    0.7000
   Max. Damping (<1)    DampMax         ....    0.9800
   Min. Damping (>=0)   DampMin         ....    0.0000
   Turn off err/grad.   DampErr         ....    0.1000

SCF Procedure:
 Maximum # iterations   MaxIter         ....   125
 SCF integral mode      SCFMode         .... Direct
   Integral package                     .... SHARK and LIBINT hybrid scheme
 Reset frequency        DirectResetFreq ....    20
 Integral Threshold     Thresh          ....  1.000e-10 Eh
 Primitive CutOff       TCut            ....  1.000e-11 Eh

Convergence Tolerance:
 Convergence Check Mode ConvCheckMode   .... Total+1el-Energy
 Convergence forced     ConvForced      .... 0
 Energy Change          TolE            ....  1.000e-06 Eh
 1-El. energy change                    ....  1.000e-03 Eh
 Orbital Gradient       TolG            ....  5.000e-05
 Orbital Rotation angle TolX            ....  5.000e-05
 DIIS Error             TolErr          ....  1.000e-06

------------------------------
INITIAL GUESS: MODEL POTENTIAL
------------------------------
Loading Hartree-Fock densities                     ... done
Calculating cut-offs                               ... done
Initializing the effective Hamiltonian             ... done
Setting up the integral package (SHARK)            ... done
Starting the Coulomb interaction                   ... done (   0.0 sec)
Making the grid                                    ... done (   0.1 sec)
Mapping shells                                     ... done
Starting the XC term evaluation                    ... done (   0.1 sec)
  promolecular density results
     # of electrons  =     63.996161083
     EX              =    -64.730274401
     EC              =     -2.963111003
     EX+EC           =    -67.693385404
Transforming the Hamiltonian                       ... done (   0.0 sec)
Diagonalizing the Hamiltonian                      ... done (   0.0 sec)
Back transforming the eigenvectors                 ... done (   0.0 sec)
Now organizing SCF variables                       ... done
                      ------------------
                      INITIAL GUESS DONE (   0.2 sec)
                      ------------------
             **** ENERGY FILE WAS UPDATED (3.en.tmp) ****
Finished Guess after   0.2 sec
Maximum memory used throughout the entire GUESS-calculation: 10.3 MB

-------------------------------------------------------------------------------------------
                                      ORCA LEAN-SCF
                              memory conserving SCF solver
-------------------------------------------------------------------------------------------

----------------------------------------D-I-I-S--------------------------------------------
Iteration    Energy (Eh)           Delta-E    RMSDP     MaxDP     DIISErr   Damp  Time(sec)
-------------------------------------------------------------------------------------------
               ***  Starting incremental Fock matrix formation  ***
    1    -721.4639732789356685     0.00e+00  4.28e-03  1.04e-01  2.58e-01  0.700   0.3
    2    -721.5869155362978518    -1.23e-01  2.64e-03  5.39e-02  9.85e-02  0.700   0.3
                               ***Turning on AO-DIIS***
    3    -721.6225372106758869    -3.56e-02  1.00e-03  1.61e-02  2.46e-02  0.700   0.3
    4    -721.6467340588950492    -2.42e-02  1.36e-03  2.88e-02  1.32e-02  0.000   0.3
    5    -721.7037916154257573    -5.71e-02  4.87e-04  9.19e-03  9.05e-03  0.000   0.3
                              *** Initializing SOSCF ***
---------------------------------------S-O-S-C-F--------------------------------------
Iteration    Energy (Eh)           Delta-E    RMSDP     MaxDP     MaxGrad    Time(sec)
--------------------------------------------------------------------------------------
    6    -721.7043935507664401    -6.02e-04  1.63e-04  2.05e-03  3.01e-03     0.3
               *** Restarting incremental Fock matrix formation ***
    7    -721.7044435315300461    -5.00e-05  1.33e-04  2.79e-03  6.36e-04     0.3
    8    -721.7044340866410721     9.44e-06  6.60e-05  1.97e-03  1.74e-03     0.3
    9    -721.7044491396799231    -1.51e-05  5.70e-05  9.40e-04  2.65e-04     0.2
   10    -721.7044483749961046     7.65e-07  2.87e-05  5.01e-04  2.28e-04     0.2
                 **** Energy Check signals convergence ****

               *****************************************************
               *                     SUCCESS                       *
               *           SCF CONVERGED AFTER  10 CYCLES          *
               *****************************************************

             **** ENERGY FILE WAS UPDATED (3.en.tmp) ****

----------------
TOTAL SCF ENERGY
----------------

Total Energy       :       -721.70445052936304 Eh          -19638.57650 eV

Components:
Nuclear Repulsion  :        386.88351196523911 Eh           10527.63558 eV
Electronic Energy  :      -1108.58796249460192 Eh          -30166.21208 eV
One Electron Energy:      -1759.95922268607569 Eh          -47890.92518 eV
Two Electron Energy:        651.37126019147365 Eh           17724.71310 eV

Virial components:
Potential Energy   :      -1441.18982165142938 Eh          -39216.76879 eV
Kinetic Energy     :        719.48537112206634 Eh           19578.19228 eV
Virial Ratio       :          2.00308425924468

DFT components:
N(Alpha)           :       31.999958718213 electrons
N(Beta)            :       31.999958718213 electrons
N(Total)           :       63.999917436425 electrons
E(X)               :      -65.651418027817 Eh       
E(C)               :       -2.955835300308 Eh       
E(XC)              :      -68.607253328125 Eh       

---------------
SCF CONVERGENCE
---------------

  Last Energy change         ...   -7.6468e-07  Tolerance :   1.0000e-06
  Last MAX-Density change    ...    5.0103e-04  Tolerance :   1.0000e-05
  Last RMS-Density change    ...    2.8675e-05  Tolerance :   1.0000e-06
  Last DIIS Error            ...    3.0062e-03  Tolerance :   1.0000e-06
  Last Orbital Gradient      ...    2.2770e-04  Tolerance :   5.0000e-05
  Last Orbital Rotation      ...    2.3199e-04  Tolerance :   5.0000e-05


----------------
ORBITAL ENERGIES
----------------

  NO   OCC          E(Eh)            E(eV) 
   0   2.0000     -88.030656     -2395.4359 
   1   2.0000     -18.819675      -512.1094 
   2   2.0000     -18.757212      -510.4097 
   3   2.0000     -13.993898      -380.7933 
   4   2.0000     -10.032363      -272.9945 
   5   2.0000      -9.959193      -271.0034 
   6   2.0000      -9.945235      -270.6236 
   7   2.0000      -7.717255      -209.9972 
   8   2.0000      -5.751481      -156.5058 
   9   2.0000      -5.747356      -156.3935 
  10   2.0000      -5.739807      -156.1881 
  11   2.0000      -1.026066       -27.9207 
  12   2.0000      -0.937152       -25.5012 
  13   2.0000      -0.824448       -22.4344 
  14   2.0000      -0.722673       -19.6649 
  15   2.0000      -0.653898       -17.7935 
  16   2.0000      -0.587263       -15.9802 
  17   2.0000      -0.533739       -14.5238 
  18   2.0000      -0.469571       -12.7777 
  19   2.0000      -0.451080       -12.2745 
  20   2.0000      -0.424383       -11.5481 
  21   2.0000      -0.405793       -11.0422 
  22   2.0000      -0.390596       -10.6287 
  23   2.0000      -0.379897       -10.3375 
  24   2.0000      -0.350702        -9.5431 
  25   2.0000      -0.340656        -9.2697 
  26   2.0000      -0.328208        -8.9310 
  27   2.0000      -0.290097        -7.8940 
  28   2.0000      -0.278050        -7.5661 
  29   2.0000      -0.228763        -6.2250 
  30   2.0000      -0.210700        -5.7334 
  31   2.0000      -0.198425        -5.3994 
  32   0.0000      -0.021729        -0.5913 
  33   0.0000       0.008263         0.2248 
  34   0.0000       0.041971         1.1421 
  35   0.0000       0.049955         1.3593 
  36   0.0000       0.072200         1.9647 
  37   0.0000       0.103126         2.8062 
  38   0.0000       0.127108         3.4588 
  39   0.0000       0.136828         3.7233 
  40   0.0000       0.154996         4.2176 
  41   0.0000       0.183817         5.0019 
  42   0.0000       0.200590         5.4583 
*Only the first 10 virtual orbitals were printed.

                    ********************************
                    * MULLIKEN POPULATION ANALYSIS *
                    ********************************

-----------------------
MULLIKEN ATOMIC CHARGES
-----------------------
   0 H :    0.134903
   1 C :   -0.339276
   2 H :    0.160665
   3 H :    0.078581
   4 O :   -0.453621
   5 C :   -0.052642
   6 H :    0.249591
   7 S :   -0.062322
   8 N :   -0.556365
   9 H :    0.251382
  10 C :    0.514806
  11 H :    0.161348
  12 O :   -0.409082
  13 H :    0.322031
Sum of atomic charges:    0.0000000

--------------------------------
MULLIKEN REDUCED ORBITAL CHARGES
--------------------------------
  0 H s       :     0.853969  s :     0.853969
      pz      :     0.005811  p :     0.011127
      px      :     0.003438
      py      :     0.001878

  1 C s       :     3.303876  s :     3.303876
      pz      :     0.949525  p :     2.998873
      px      :     0.964527
      py      :     1.084821
      dz2     :     0.006163  d :     0.036527
      dxz     :     0.009145
      dyz     :     0.006645
      dx2y2   :     0.007755
      dxy     :     0.006820

  2 H s       :     0.827744  s :     0.827744
      pz      :     0.003915  p :     0.011591
      px      :     0.003849
      py      :     0.003828

  3 H s       :     0.905311  s :     0.905311
      pz      :     0.003209  p :     0.016108
      px      :     0.004633
      py      :     0.008266

  4 O s       :     3.823145  s :     3.823145
      pz      :     1.634801  p :     4.607729
      px      :     1.645574
      py      :     1.327354
      dz2     :     0.003511  d :     0.022746
      dxz     :     0.004741
      dyz     :     0.007619
      dx2y2   :     0.003044
      dxy     :     0.003831

  5 C s       :     3.199486  s :     3.199486
      pz      :     1.003918  p :     2.795939
      px      :     0.958591
      py      :     0.833430
      dz2     :     0.009088  d :     0.057216
      dxz     :     0.009555
      dyz     :     0.011739
      dx2y2   :     0.011407
      dxy     :     0.015428

  6 H s       :     0.726400  s :     0.726400
      pz      :     0.005705  p :     0.024009
      px      :     0.010493
      py      :     0.007811

  7 S s       :     5.853580  s :     5.853580
      pz      :     3.274893  p :    10.150402
      px      :     3.679068
      py      :     3.196441
      dz2     :     0.014636  d :     0.058340
      dxz     :     0.011496
      dyz     :     0.009335
      dx2y2   :     0.016994
      dxy     :     0.005879

  8 N s       :     3.586378  s :     3.586378
      pz      :     1.278107  p :     3.941873
      px      :     1.468079
      py      :     1.195687
      dz2     :     0.011278  d :     0.028114
      dxz     :     0.001004
      dyz     :     0.002825
      dx2y2   :     0.006070
      dxy     :     0.006937

  9 H s       :     0.724544  s :     0.724544
      pz      :     0.011940  p :     0.024074
      px      :     0.007166
      py      :     0.004967

 10 C s       :     2.977174  s :     2.977174
      pz      :     0.806398  p :     2.382818
      px      :     0.823242
      py      :     0.753178
      dz2     :     0.026862  d :     0.125202
      dxz     :     0.022613
      dyz     :     0.038758
      dx2y2   :     0.020195
      dxy     :     0.016775

 11 H s       :     0.826859  s :     0.826859
      pz      :     0.003245  p :     0.011792
      px      :     0.002532
      py      :     0.006015

 12 O s       :     3.858832  s :     3.858832
      pz      :     1.364105  p :     4.521885
      px      :     1.474005
      py      :     1.683776
      dz2     :     0.009910  d :     0.028365
      dxz     :     0.007784
      dyz     :     0.006607
      dx2y2   :     0.001845
      dxy     :     0.002219

 13 H s       :     0.639998  s :     0.639998
      pz      :     0.013382  p :     0.037970
      px      :     0.012996
      py      :     0.011593



                     *******************************
                     * LOEWDIN POPULATION ANALYSIS *
                     *******************************

----------------------
LOEWDIN ATOMIC CHARGES
----------------------
   0 H :    0.089426
   1 C :   -0.209419
   2 H :    0.087334
   3 H :    0.044227
   4 O :   -0.137175
   5 C :   -0.061983
   6 H :    0.130827
   7 S :    0.004794
   8 N :   -0.248424
   9 H :    0.129617
  10 C :    0.103540
  11 H :    0.092771
  12 O :   -0.210306
  13 H :    0.184772

-------------------------------
LOEWDIN REDUCED ORBITAL CHARGES
-------------------------------
  0 H s       :     0.870892  s :     0.870892
      pz      :     0.022585  p :     0.039682
      px      :     0.011120
      py      :     0.005977

  1 C s       :     2.955496  s :     2.955496
      pz      :     1.033894  p :     3.173369
      px      :     1.036817
      py      :     1.102657
      dz2     :     0.014475  d :     0.080554
      dxz     :     0.020639
      dyz     :     0.013342
      dx2y2   :     0.016432
      dxy     :     0.015667

  2 H s       :     0.870471  s :     0.870471
      pz      :     0.014916  p :     0.042195
      px      :     0.013659
      py      :     0.013620

  3 H s       :     0.906599  s :     0.906599
      pz      :     0.007724  p :     0.049175
      px      :     0.011375
      py      :     0.030075

  4 O s       :     3.467406  s :     3.467406
      pz      :     1.633442  p :     4.618595
      px      :     1.621773
      py      :     1.363381
      dz2     :     0.006003  d :     0.051174
      dxz     :     0.007254
      dyz     :     0.017383
      dx2y2   :     0.009987
      dxy     :     0.010546

  5 C s       :     2.886673  s :     2.886673
      pz      :     1.044062  p :     3.044281
      px      :     1.036542
      py      :     0.963678
      dz2     :     0.019355  d :     0.131029
      dxz     :     0.020980
      dyz     :     0.027814
      dx2y2   :     0.026250
      dxy     :     0.036631

  6 H s       :     0.789942  s :     0.789942
      pz      :     0.014974  p :     0.079231
      px      :     0.039523
      py      :     0.024734

  7 S s       :     5.648139  s :     5.648139
      pz      :     3.330442  p :    10.282504
      px      :     3.678546
      py      :     3.273515
      dz2     :     0.016274  d :     0.064562
      dxz     :     0.013992
      dyz     :     0.010117
      dx2y2   :     0.017974
      dxy     :     0.006205

  8 N s       :     3.194467  s :     3.194467
      pz      :     1.291331  p :     3.996923
      px      :     1.461762
      py      :     1.243831
      dz2     :     0.020832  d :     0.057035
      dxz     :     0.002007
      dyz     :     0.007774
      dx2y2   :     0.012495
      dxy     :     0.013926

  9 H s       :     0.789976  s :     0.789976
      pz      :     0.045914  p :     0.080406
      px      :     0.020619
      py      :     0.013872

 10 C s       :     2.855246  s :     2.855246
      pz      :     0.983550  p :     2.740904
      px      :     0.861470
      py      :     0.895884
      dz2     :     0.062598  d :     0.300310
      dxz     :     0.052429
      dyz     :     0.098840
      dx2y2   :     0.048424
      dxy     :     0.038019

 11 H s       :     0.865349  s :     0.865349
      pz      :     0.010486  p :     0.041880
      px      :     0.007405
      py      :     0.023989

 12 O s       :     3.553191  s :     3.553191
      pz      :     1.451132  p :     4.598629
      px      :     1.472501
      py      :     1.674996
      dz2     :     0.020752  d :     0.058485
      dxz     :     0.016196
      dyz     :     0.014324
      dx2y2   :     0.003486
      dxy     :     0.003727

 13 H s       :     0.699570  s :     0.699570
      pz      :     0.042334  p :     0.115658
      px      :     0.039303
      py      :     0.034022



                      *****************************
                      * MAYER POPULATION ANALYSIS *
                      *****************************

  NA   - Mulliken gross atomic population
  ZA   - Total nuclear charge
  QA   - Mulliken gross atomic charge
  VA   - Mayer's total valence
  BVA  - Mayer's bonded valence
  FA   - Mayer's free valence

  ATOM       NA         ZA         QA         VA         BVA        FA
  0 H      0.8651     1.0000     0.1349     0.9483     0.9483     0.0000
  1 C      6.3393     6.0000    -0.3393     3.8441     3.8441     0.0000
  2 H      0.8393     1.0000     0.1607     0.9401     0.9401    -0.0000
  3 H      0.9214     1.0000     0.0786     0.9727     0.9727     0.0000
  4 O      8.4536     8.0000    -0.4536     2.0336     2.0336    -0.0000
  5 C      6.0526     6.0000    -0.0526     3.8599     3.8599     0.0000
  6 H      0.7504     1.0000     0.2496     0.9191     0.9191    -0.0000
  7 S     16.0623    16.0000    -0.0623     2.0063     2.0063     0.0000
  8 N      7.5564     7.0000    -0.5564     2.9011     2.9011    -0.0000
  9 H      0.7486     1.0000     0.2514     0.9347     0.9347    -0.0000
 10 C      5.4852     6.0000     0.5148     3.9487     3.9487     0.0000
 11 H      0.8387     1.0000     0.1613     0.9469     0.9469    -0.0000
 12 O      8.4091     8.0000    -0.4091     2.1266     2.1266    -0.0000
 13 H      0.6780     1.0000     0.3220     0.9146     0.9146    -0.0000

  Mayer bond orders larger than 0.100000
B(  0-H ,  5-C ) :   0.9196 B(  1-C ,  2-H ) :   0.9360 B(  1-C ,  5-C ) :   0.9581 
B(  1-C ,  7-S ) :   1.0026 B(  1-C , 11-H ) :   0.9372 B(  3-H ,  7-S ) :   0.9461 
B(  4-O , 10-C ) :   1.0823 B(  4-O , 13-H ) :   0.8497 B(  5-C ,  8-N ) :   1.0628 
B(  5-C , 10-C ) :   0.8937 B(  6-H ,  8-N ) :   0.9066 B(  8-N ,  9-H ) :   0.8904 
B( 10-C , 12-O ) :   1.9335 

-------
TIMINGS
-------

Total SCF time: 0 days 0 hours 0 min 2 sec 

Total time                  ....       2.964 sec
Sum of individual times     ....       2.717 sec  ( 91.7%)

SCF preparation             ....       0.023 sec  (  0.8%)
Fock matrix formation       ....       2.671 sec  ( 90.1%)
  Startup                   ....       0.000 sec  (  0.0% of F)
  Split-RI-J                ....       0.844 sec  ( 31.6% of F)
  XC integration            ....       2.064 sec  ( 77.3% of F)
    XC Preparation          ....       0.000 sec  (  0.0% of XC)
    Basis function eval.    ....       0.709 sec  ( 34.3% of XC)
    Density eval.           ....       0.418 sec  ( 20.2% of XC)
    XC-Functional eval.     ....       0.425 sec  ( 20.6% of XC)
    XC-Potential eval.      ....       0.462 sec  ( 22.4% of XC)
Diagonalization             ....       0.000 sec  (  0.0%)
Density matrix formation    ....       0.002 sec  (  0.1%)
Total Energy calculation    ....       0.000 sec  (  0.0%)
Population analysis         ....       0.002 sec  (  0.1%)
Orbital Transformation      ....       0.003 sec  (  0.1%)
Orbital Orthonormalization  ....       0.000 sec  (  0.0%)
DIIS solution               ....       0.012 sec  (  0.4%)
SOSCF solution              ....       0.005 sec  (  0.2%)
Finished LeanSCF after   3.0 sec

Maximum memory used throughout the entire LEANSCF-calculation: 14.9 MB



-------------------------------------------------------------------------------
                          DFT DISPERSION CORRECTION                            
-------------------------------------------------------------------------------
Active option DFTDOPT                   ...         2   
Final C6-coefficient scaling factor     ...     1.250
Final VDW-radii scaling factor          ...     1.100
Damping factor alpha                    ...    20.000
-------------------------   ----------------
Dispersion correction           -0.017256455
-------------------------   ----------------


-------------------------   --------------------
FINAL SINGLE POINT ENERGY      -721.721706984201
-------------------------   --------------------


------------------------------------------------------------------------------
                              ORCA PROPERTY CALCULATIONS
------------------------------------------------------------------------------

GBWName                                 ... 3.gbw
Number of atoms                         ...     14
Number of basis functions               ...    137
Max core memory                         ...   4096 MB

Electric properties:
Dipole moment                           ... YES
Quadrupole moment                       ...  NO
Static polarizability (Dipole/Dipole)   ...  NO
Static polarizability (Dipole/Quad.)    ...  NO
Static polarizability (Quad./Quad.)     ...  NO
Static polarizability (Velocity)        ...  NO
Static hyperpolarizability              ...  NO

Atomic electric properties:
Dipole moment                           ...  NO
Quadrupole moment                       ...  NO
Static polarizability                   ...  NO

Choice of electric origin               ... Center of mass
Position of electric origin             ...    -3.542244     2.408263     0.017156

General magnetic properties:
Magnetizability                         ...  NO

EPR properties:
g-Tensor (aka g-matrix)                 ...  NO
Zero-Field splitting spin-orbit         ...  NO
Zero-field splitting spin-spin          ...  NO
Hyperfine couplings                     ...  NO (   0 nuclei)
Quadrupole couplings                    ...  NO (   0 nuclei)
Contact density                         ...  NO (   0 nuclei)

NMR properties:
Chemical shifts                         ...  NO (   0 nuclei)
Spin-rotation constants                 ...  NO (   0 nuclei)
Spin-spin couplings                     ...  NO (   0 nuclei,    0 pairs)

Choice of magnetic origin               ... GIAO
Position of magnetic origin             ...     0.000000     0.000000     0.000000

Properties with geometric perturbations:
SCF Hessian                             ...  NO
IR spectrum                             ...  NO
VCD spectrum                            ...  NO
X-ray spectroscopy properties:
SCF XES/XAS/RIXS spectra                ...  NO

SCF SOC stabilization energy            ...  NO
Diagonal Born-Oppenheimer correction    ...  NO

-------------
DIPOLE MOMENT
-------------

Method             : SCF
Type of density    : Electron Density
Multiplicity       :   1
Irrep              :   0
Energy             :  -721.7044505293630436 Eh
Basis              : AO
                                X                 Y                 Z
Electronic contribution:      1.010956639      -3.266264088      -2.797712647
Nuclear contribution   :     -0.513993219       3.213842160       3.400940545
                        -----------------------------------------
Total Dipole Moment    :      0.496963421      -0.052421928       0.603227898
                        -----------------------------------------
Magnitude (a.u.)       :      0.783329175
Magnitude (Debye)      :      1.991064531



--------------------
Rotational spectrum 
--------------------
 
Rotational constants in cm-1:             0.095070             0.054963             0.047124 
Rotational constants in MHz :          2850.130093          1647.746052          1412.729209 

Dipole components along the rotational axes: 
x,y,z [a.u.] :     0.497010     0.053086     0.603132 
x,y,z [Debye]:     1.263298     0.134935     1.533039 

 

Dipole moment calculation done in   0.0 sec 

Maximum memory used throughout the entire PROP-calculation: 8.5 MB

--------------------------------
SUGGESTED CITATIONS FOR THIS RUN
--------------------------------

Below you find a list of papers that are relevant to this ORCA run
We neither can nor want to force you to cite these papers, but we appreciate if you do
You receive ORCA, which is the product of decades of hard work by many enthusiastic individuals, for free
The only thing we kindly ask in return is that you cite our papers,
We deeply appreciate it, if you show your appreciation for ORCA by not just citing the generic ORCA reference.

Please note that relegating all ORCA citations to the supporting information does *not* help us.
SI sections are not indexed - citations you put there will not count into any citation statistics
But we need these citations in order to attract the funding resources that allow us to do what we are doing

Therefore, if you are a happy ORCA user, please consider citing a few of the papers listed below in the main body of your paper

In addition to the list printed below, the program has created the file 3.bibtex that contains the list in bibtex format
You can import this file easily into all common literature databanks and citation aid programs


List of essential papers. We consider these as the minimum necessary citations

  1. Neese, F.
     Software update: the ORCA program system, version 6.0
     WIRES Comput. Molec. Sci. 2025 15(1), e70019
     doi.org/10.1002/wcms.7019

List of papers to cite with high priority. The work reported in these papers was absolutely
necessary for this run to complete.
Our perspective: the developers of density functionals and basis sets usually get cited in chemistry papers
Good! But without the algorithms to do something with them, the functionals or basis sets would not do anything.
Hence, in our opinion, the algorithm design and method developments papers are equally worthy of getting cited

  1. Neese, F.
     An improvement of the resolution of the identity approximation for the formation of the Coulomb matrix
     J. Comp. Chem. 2003 24(14), 1740-1747
     doi.org/10.1002/jcc.10318
  2. Grimme, S.
     Semiempirical GGA-type density functional constructed with a long-range dispersion correction
     J.Comput.Chem. 2006 27(15), 1787-1799
     doi.org/10.1002/jcc.20495
  3. Neese, F.
     The SHARK Integral Generation and Digestion System
     J. Comp. Chem. 2022 44(3), 381
     doi.org/10.1002/jcc.26942

List of suggested additional citations. These are papers that are important in the 'surrounding' of 
of this run, or papers that preceded the highly important papers. If you like your results we are grateful for a citation.

  1. Neese, F.
     The ORCA program system
     WIRES Comput. Molec. Sci. 2012 2(1), 73-78
     doi.org/10.1002/wcms.81
  2. Neese, F.
     Software update: the ORCA program system, version 4.0
     WIRES Comput. Molec. Sci. 2018 8(1), 1-6
     doi.org/10.1002/wcms.1327
  3. Neese, F.; Wennmohs, F.; Becker, U.; Riplinger, C.
     The ORCA quantum chemistry program package
     J. Chem. Phys. 2020 152(22), 224108
     doi.org/10.1063/5.0004608
  4. Neese, F.
     Software update: The ORCA program system—Version 5.0
     WIRES Comput. Molec. Sci. 2022 12(1), e1606
     doi.org/10.1002/wcms.1606

List of optional additional citations

  1. Neese, F.
     Approximate second-order SCF convergence for spin unrestricted wavefunctions
     Chem. Phys. Lett. 2000 325(1-3), 93-98
     doi.org/10.1016/s0009-2614(00)00662-x

Timings for individual modules:

Sum of individual times          ...        3.488 sec (=   0.058 min)
Startup calculation              ...        0.299 sec (=   0.005 min)   8.6 %
SCF iterations                   ...        3.160 sec (=   0.053 min)  90.6 %
Property calculations            ...        0.029 sec (=   0.000 min)   0.8 %
                             ****ORCA TERMINATED NORMALLY****
TOTAL RUN TIME: 0 days 0 hours 0 minutes 3 seconds 525 msec
