
                                 *****************
                                 * O   R   C   A *
                                 *****************

                                            #,                                       
                                            ###                                      
                                            ####                                     
                                            #####                                    
                                            ######                                   
                                           ########,                                 
                                     ,,################,,,,,                         
                               ,,#################################,,                 
                          ,,##########################################,,             
                       ,#########################################, ''#####,          
                    ,#############################################,,   '####,        
                  ,##################################################,,,,####,       
                ,###########''''           ''''###############################       
              ,#####''   ,,,,##########,,,,          '''####'''          '####       
            ,##' ,,,,###########################,,,                        '##       
           ' ,,###''''                  '''############,,,                           
         ,,##''                                '''############,,,,        ,,,,,,###''
      ,#''                                            '''#######################'''  
     '                                                          ''''####''''         
             ,#######,   #######,   ,#######,      ##                                
            ,#'     '#,  ##    ##  ,#'     '#,    #''#        ,####,    ,#,          
            ##       ##  ##   ,#'  ##            #'  '#       #'       ,# #          
            ##       ##  #######   ##           ,######,      #####,      #          
            '#,     ,#'  ##    ##  '#,     ,#' ,#      #,     #,   #      #          
             '#######'   ##     ##  '#######'  #'      '#     '####' #    #          



                #########################################################
                #                        -***-                          #
                #          Department of theory and spectroscopy        #
                #                                                       #
                #                      Frank Neese                      #
                #                                                       #
                #     Directorship, Architecture, Infrastructure        #
                #                    SHARK, DRIVERS                     #
                #        Core code/Algorithms in most modules           #
                #                                                       #
                #        Max Planck Institute fuer Kohlenforschung      #
                #                Kaiser Wilhelm Platz 1                 #
                #                 D-45470 Muelheim/Ruhr                 #
                #                      Germany                          #
                #                                                       #
                #                  All rights reserved                  #
                #                        -***-                          #
                #########################################################


                         Program Version 6.1.0  -  RELEASE   -
                                (GIT: $679e74b$)
                          ($2025-06-10 18:02:51 +0200$)


 With contributions from (in alphabetic order):
[Max-Planck-Institut fuer Kohlenforschung]                               
  Daniel Aravena         : Magnetic Suceptibility                        
  Michael Atanasov       : Ab Initio Ligand Field Theory (pilot matlab implementation)
  Alexander A. Auer      : GIAO ZORA, VPT2 properties, NMR spectrum      
  Ute Becker             : All parallelization in ORCA, NUMFREQ, NUMCALC 
  Giovanni Bistoni       : ED, misc. LED, open-shell LED, HFLD           
  Dmytro Bykov           : pre 5.0 version of the SCF Hessian            
  Marcos Casanova-Páez   : Triplet and SCS-CIS(D). UHF-(DLPNO)-IP/EA/STEOM-CCSD. UHF-CVS-IP/STEOM-CCSD   
  Vijay G. Chilkuri      : MRCI spin determinant printing, contributions to CSF-ICE 
  Pauline Colinet        : FMM embedding                                 
  Dipayan Datta          : RHF DLPNO-CCSD density                        
  Achintya Kumar Dutta   : EOM-CC, STEOM-CC                              
  Nicolas Foglia         : Exact transition moments, OPA infrastructure, MCD improvements    
  Dmitry Ganyushin       : Spin-Orbit,Spin-Spin,Magnetic field MRCI      
  Miquel Garcia-Rates    : C-PCM and meta-GGA Hessian, CCSD/C-PCM, Gaussian charge scheme 
  Tiago L. C. Gouveia    : GS-ROHF, GS-ROCIS                             
  Yang Guo               : DLPNO-NEVPT2, F12-NEVPT2, CIM, IAO-localization        
  Andreas Hansen         : Spin unrestricted coupled pair/coupled cluster methods 
  Ingolf Harden          : AUTO-CI MPn and infrastructure                
  Benjamin Helmich-Paris : MC-RPA, TRAH-(SCF,CASSCF), AVAS, COSX integrals, SCF dyn. polar., MC-PDFT, srDFT 
  Lee Huntington         : MR-EOM, pCC                                   
  Robert Izsak           : Overlap fitted RIJCOSX, COSX-SCS-MP3, EOM     
  Riya Kayal             : Wick's Theorem for AUTO-CI, AUTO-CI UHF-CCSDT 
  Emily Kempfer          : AUTO-CI RHF CISDT and CCSDT, approximate NEVPT4
  Christian Kollmar      : KDIIS, OOCD, Brueckner-CCSD(T), CCSD density, CASPT2, CASPT2-K, improved NEVPT2 
  Axel Koslowski         : Symmetry handling                             
  Simone Kossmann        : meta-GGA functionals, TD-DFT gradient, OOMP2, (MP2 Hessian; deprecated post 5.0) 
  Lucas Lang             : DCDCAS, Hyperfine gauge corrections, ICE-SOC+SSC
  Marvin Lechner         : AUTO-CI (C++ implementation), FIC-MRCC        
  Spencer Leger          : CASSCF response                               
  Dagmar Lenk            : GEPOL surface, SMD, ORCA-2-JSON               
  Dimitrios Liakos       : Extrapolation schemes; Compound Job, Property file
  Dimitrios Manganas     : Further ROCIS development; embedding schemes. LFT, Crystal Embedding 
  Dimitrios Pantazis     : SARC Basis sets                               
  Anastasios Papadopoulos: AUTO-CI, single reference methods and gradients 
  Taras Petrenko         : pre 6.0 DFT Hessian and TD-DFT gradient,  ECA, NRVS 
  Petra Pikulova         : Analytic Raman intensities                    
  Peter Pinski           : DLPNO-MP2, DLPNO-MP2 Gradient                 
  Shashank Vittal Rao    : ES-AILFT, MagRelax                            
  Christoph Reimann      : Effective Core Potentials                     
  Marius Retegan         : Local ZFS, SOC                                
  Christoph Riplinger    : Optimizer, TS searches, QM/MM, DLPNO-CCSD(T), (RO)-DLPNO pert. Triples 
  Michael Roemelt        : Original ROCIS implementation, recursive CI coupling coefficients
  Masaaki Saitow         : Open-shell DLPNO-CCSD energy and density      
  Barbara Sandhoefer     : DKH picture change effects                    
  Yorick L. A. Schmerwitz: GMF and freeze-and-release deltaSCF, NEB S-IDPP initial path                    
  Kantharuban Sivalingam : CASSCF convergence/infrastructure, NEVPT2, NEVPT3, NEVPT4(SD), FIC-MRCI and CEPA variants
  Bernardo de Souza      : ESD, SOC TD-DFT                               
  Georgi L. Stoychev     : AutoAux, RI-MP2 NMR, DLPNO-MP2 response, X2C  
  Van Anh Tran           : RI-MP2 g-tensors                              
  Willem Van den Heuvel  : Paramagnetic NMR                              
  Zikuan Wang            : NOTCH, Electric field optimization            
  Frank Wennmohs         : Technical directorship and infrastructure     
  Hang Xu                : AUTO-CI-Response properties                   
                                                                         
[FACCTs GmbH]                                                            
  Markus Bursch, Nicolas Foglia, Miquel Garcia-Rates, Ingolf Harden, Hagen Neugebauer, Anastasios Papadopoulos, 
  Christoph Riplinger, Bernardo de Souza, Georgi L. Stoychev                                                    
                                                                 
  APM, various basis sets, CI-OPT, improved COSX, DLPNO-Multilevel,           
  DOCKER, DRACO, updates on ESD, Fragmentator, GOAT, IRC, LR-CPCM, L-BFGS, MBIS, meta-GGA TD-DFT gradient, ML-optimized integration grids, 
  MM, NACMEs, nearIR, NEB, NEB-TS, NL-DFT gradient (VV10), 2- and 3-layer-ONIOM, interface openCOSMO-RS, QMMM,   
  Crystal-QMMM, RESP, rigid body optimization, SF, symmetry and pop. for TD-DFT, various functionals, SOLVATOR                                   
                                                                         
[Other institutions]                                                     
  V. Asgeirsson          : NEB                                           
  Christoph Bannwarth    : sTDA-DFT, sTD-DFT, PBEh-3c, B97-3c, D3        
  Giovanni Bistoni       : ETS/NOCV, ADLD/ADEX, COVALED                  
  Martin Brehm           : Molecular dynamics                            
  Ronald Cardenas        : ETS/NOCV                                      
  Martina Colucci        : COVALED                                       
  Sebastian Ehlert       : rSCAN, r2SCAN, r2SCAN-3c, D4, dhf basis sets  
  Marvin Friede          : D4 for Fr, Ra, Ac-Lr                          
  Lars Goerigk           : TD-DFT with DH, B97 family of functionals     
  Stefan Grimme          : VdW corrections, initial TS optimization, DFT functionals, gCP, sTDA/sTD-DF 
  Waldemar Hujo          : DFT-NL                                        
  H. Jonsson             : NEB                                           
  Holger Kruse           : gCP                                           
  Marcel Mueller         : wB97X-3c, vDZP basis set                      
  Hagen Neugebauer       : wr2SCAN, Native XTB                           
  Gianluca Regni         : ADLD/ADEX                                     
  Tobias Risthaus        : pre 6.0 range-separated hybrid DFT and stability analysis
  Lukas Wittmann         : regularized MP2, r2SCAN double-hybrids, wr2SCAN        
                                                                         
We gratefully acknowledge several colleagues who have allowed us to      
interface, adapt or use parts of their codes:                            
  Ed Valeev, F. Pavosevic, A. Kumar             : LibInt (2-el integral package), F12 methods 
  Garnet Chan, S. Sharma, J. Yang, R. Olivares  : DMRG                   
  Ulf Ekstrom                                   : XCFun DFT Library      
  Mihaly Kallay                                 : mrcc  (arbitrary order and MRCC methods)
  Frank Weinhold                                : gennbo (NPA and NBO analysis)           
  Simon Mueller                                 : openCOSMO-RS                            
  Christopher J. Cramer and Donald G. Truhlar   : smd solvation model                     
  S Lehtola, MJT Oliveira, MAL Marques          : LibXC Library                           
  Liviu Ungur et al                             : ANISO software                          


 Your calculation uses the libint2 library for the computation of 2-el integrals
 For citations please refer to: http://libint.valeyev.net

 Your ORCA version has been built with support for libXC version: 7.0.0
 For citations please refer to: https://libxc.gitlab.io

 This ORCA versions uses:
   CBLAS   interface :  Fast vector & matrix operations
   LAPACKE interface :  Fast linear algebra routines
   SCALAPACK package :  Parallel linear algebra routines
   Shared memory     :  Shared parallel matrices
   BLAS/LAPACK       :  OpenBLAS 0.3.29  USE64BITINT DYNAMIC_ARCH NO_AFFINITY Haswell SINGLE_THREADED
        Core in use  :  Haswell
   Copyright (c) 2011-2014, The OpenBLAS Project


  ***********************************
  * Starting time: Thu Aug 14 01:02:41 2025
  * Host name:     CHEMLAB02
  * Process ID:    1543007
  * Working dir.:  /home/vivek/mm-project/vivek/MP2/h/3
  ***********************************



***************************************
The coordinates will be read from file: /home/vivek/mm-project/vivek/xtb-goat/h/H_CONF/3.xyz
***************************************


================================================================================

----- Orbital basis set information -----
Your calculation utilizes the basis: 6-31G**
   H-He, Li-Ne : W. J. Hehre, R. Ditchfield and J.A. Pople, J. Chem. Phys. 56, 2257 (1972).
                 Note: He and Ne are unpublished basis sets taken from the Gaussian program.
                 Note: Li and B from J. D. Dill and J. A. Pople, J. Chem. Phys. 62, 2921 (1975).
   Na - Ar     : M. M. Francl, W. J. Pietro, W. J. Hehre, J. S. Binkley, M. S. Gordon, 
                 D. J. DeFrees and J. A. Pople, J. Chem. Phys. 77, 3654 (1982).
   K - Zn      : V. A. Rassolov, J. A. Pople, M. A. Ratner, and T. L. Windus, J. Chem. Phys. 109, 1223 (1998).

================================================================================
                                        WARNINGS
                       Please study these warnings very carefully!
================================================================================


WARNING: No MP2 level density has been requested!
         To calculate MP2 level properties use
         %mp2 Density relaxed end
         or
         %mp2 Density unrelaxed end

WARNING: Post HF methods need fully converged wavefunctions
  ===> : Setting SCFConvForced true
         You can overwrite this default with %scf ConvForced false 


================================================================================
                                       INPUT FILE
================================================================================
NAME = 3.inp
|  1> ! MP2 6-31G** 
|  2> 
|  3> * xyzfile 0 1 /home/vivek/mm-project/vivek/xtb-goat/h/H_CONF/3.xyz
|  4> 
|  5>                          ****END OF INPUT****
================================================================================

                       ****************************
                       * Single Point Calculation *
                       ****************************

---------------------------------
CARTESIAN COORDINATES (ANGSTROEM)
---------------------------------
  C     -8.724190    2.250112    0.228655
  N     -7.335920    2.469585    0.620552
  H     -9.679499    2.674879    1.973137
  C     -7.262708    3.885821    0.981923
  N     -9.545942    3.107917    1.062983
  H     -8.822697    2.574481   -0.813927
  H     -9.011352    1.202493    0.307453
  C     -8.747157    4.318654    1.196738
  H     -7.059906    1.865389    1.387001
  H     -9.047031    5.013716    0.408690
  H     -8.910248    4.795146    2.162299
  C     -6.586298    4.631962   -0.168860
  H     -6.670170    4.011861    1.892891
  C     -5.384450    3.815611   -0.642284
  H     -7.277942    4.721686   -1.008033
  H     -6.269549    5.627853    0.136132
  C     -5.891996    2.456134   -1.131130
  H     -5.326978    4.606184   -2.509251
  N     -4.698256    4.517096   -1.715970
  H     -3.890825    3.984299   -2.022703
  O     -5.152641    1.431247   -0.654550
  H     -4.676065    3.654676    0.175443
  H     -5.444575    0.605153   -1.069380
  O     -6.665893    2.315418   -2.049434

----------------------------
CARTESIAN COORDINATES (A.U.)
----------------------------
  NO LB      ZA    FRAG     MASS         X           Y           Z
   0 C     6.0000    0    12.011  -16.486331    4.252095    0.432096
   1 N     7.0000    0    14.007  -13.862879    4.666839    1.172673
   2 H     1.0000    0     1.008  -18.291602    5.054790    3.728688
   3 C     6.0000    0    12.011  -13.724528    7.343138    1.855566
   4 N     7.0000    0    14.007  -18.039217    5.873112    2.008746
   5 H     1.0000    0     1.008  -16.672481    4.865064   -1.538099
   6 H     1.0000    0     1.008  -17.028988    2.272383    0.581002
   7 C     6.0000    0    12.011  -16.529731    8.161073    2.261507
   8 H     1.0000    0     1.008  -13.341290    3.525073    2.621051
   9 H     1.0000    0     1.008  -17.096411    9.474550    0.772313
  10 H     1.0000    0     1.008  -16.837929    9.061512    4.086153
  11 C     6.0000    0    12.011  -12.446299    8.753139   -0.319099
  12 H     1.0000    0     1.008  -12.604795    7.581318    3.577045
  13 C     6.0000    0    12.011  -10.175136    7.210460   -1.213741
  14 H     1.0000    0     1.008  -13.753317    8.922693   -1.904906
  15 H     1.0000    0     1.008  -11.847731   10.635102    0.257252
  16 C     6.0000    0    12.011  -11.134259    4.641421   -2.137525
  17 H     1.0000    0     1.008  -10.066530    8.704427   -4.741798
  18 N     7.0000    0    14.007   -8.878418    8.536074   -3.242714
  19 H     1.0000    0     1.008   -7.352594    7.529234   -3.822354
  20 O     8.0000    0    15.999   -9.737080    2.704664   -1.236920
  21 H     1.0000    0     1.008   -8.836482    6.906337    0.331540
  22 H     1.0000    0     1.008  -10.288756    1.143574   -2.020835
  23 O     8.0000    0    15.999  -12.596711    4.375507   -3.872869

--------------------------------
INTERNAL COORDINATES (ANGSTROEM)
--------------------------------
 C      0   0   0     0.000000000000     0.00000000     0.00000000
 N      1   0   0     1.459125298701     0.00000000     0.00000000
 H      1   2   0     2.033778985963   100.66803710     0.00000000
 C      2   1   3     1.463446231181   105.03930974   297.51608569
 N      3   1   2     1.016729464622    42.21831920   106.58463644
 H      1   2   3     1.096310661550   107.24188007   144.76302271
 H      1   2   3     1.089116475075   112.09308656   264.66792411
 C      5   3   1     1.456651216852   110.11124586   246.71569834
 H      2   1   3     1.014238724415   111.85659620    59.35777077
 H      8   5   3     1.092728102864   108.17899418   209.93060772
 H      8   5   3     1.089014056591   111.28252529   329.23085266
 C      4   2   1     1.529234636907   107.96788924   256.65291932
 H      4   2   1     1.094005228332   110.13335909   137.35671982
 C     12   4   2     1.528069732188   108.68541008   316.44089893
 H     12   4   2     1.091161254284   109.78488009    74.01710300
 H     12   4   2     1.088645825425   111.35942706   194.75804152
 C     14  12   4     1.531257975525   108.21097404    60.75062986
 H     14  12   4     2.028269062122    95.69497065   156.37261395
 N     18  14  12     1.016131269191    42.67224670   122.72081066
 H     19  18  14     1.014840930028   107.59904166   119.52835370
 O     17  14  12     1.350617946218   112.30928324   226.22445905
 H     14  12   4     1.093794892707   110.87683743   301.47115908
 H     21  17  14     0.969401834130   109.31714074   186.51437350
 O     17  14  12     1.209131645474   123.91252899    61.15729509

---------------------------
INTERNAL COORDINATES (A.U.)
---------------------------
 C      0   0   0     0.000000000000     0.00000000     0.00000000
 N      1   0   0     2.757347209621     0.00000000     0.00000000
 H      1   2   0     3.843285300394   100.66803710     0.00000000
 C      2   1   3     2.765512588651   105.03930974   297.51608569
 N      3   1   2     1.921340240424    42.21831920   106.58463644
 H      1   2   3     2.071726908028   107.24188007   144.76302271
 H      1   2   3     2.058131865834   112.09308656   264.66792411
 C      5   3   1     2.752671872492   110.11124586   246.71569834
 H      2   1   3     1.916633423562   111.85659620    59.35777077
 H      8   5   3     2.064956853252   108.17899418   209.93060772
 H      8   5   3     2.057938322948   111.28252529   329.23085266
 C      4   2   1     2.889834658261   107.96788924   256.65291932
 H      4   2   1     2.067370270625   110.13335909   137.35671982
 C     12   4   2     2.887633307371   108.68541008   316.44089893
 H     12   4   2     2.061995938543   109.78488009    74.01710300
 H     12   4   2     2.057242466890   111.35942706   194.75804152
 C     14  12   4     2.893658214125   108.21097404    60.75062986
 H     14  12   4     3.832873053316    95.69497065   156.37261395
 N     18  14  12     1.920209814885    42.67224670   122.72081066
 H     19  18  14     1.917771427246   107.59904166   119.52835370
 O     17  14  12     2.552298029912   112.30928324   226.22445905
 H     14  12   4     2.066972793898   110.87683743   301.47115908
 H     21  17  14     1.831903980226   109.31714074   186.51437350
 O     17  14  12     2.284927669804   123.91252899    61.15729509

---------------------
BASIS SET INFORMATION
---------------------
There are 4 groups of distinct atoms

 Group   1 Type C   : 10s4p1d contracted to 3s2p1d pattern {631/31/1}
 Group   2 Type N   : 10s4p1d contracted to 3s2p1d pattern {631/31/1}
 Group   3 Type H   : 4s1p contracted to 2s1p pattern {31/1}
 Group   4 Type O   : 10s4p1d contracted to 3s2p1d pattern {631/31/1}

Atom   0C    basis set group =>   1
Atom   1N    basis set group =>   2
Atom   2H    basis set group =>   3
Atom   3C    basis set group =>   1
Atom   4N    basis set group =>   2
Atom   5H    basis set group =>   3
Atom   6H    basis set group =>   3
Atom   7C    basis set group =>   1
Atom   8H    basis set group =>   3
Atom   9H    basis set group =>   3
Atom  10H    basis set group =>   3
Atom  11C    basis set group =>   1
Atom  12H    basis set group =>   3
Atom  13C    basis set group =>   1
Atom  14H    basis set group =>   3
Atom  15H    basis set group =>   3
Atom  16C    basis set group =>   1
Atom  17H    basis set group =>   3
Atom  18N    basis set group =>   2
Atom  19H    basis set group =>   3
Atom  20O    basis set group =>   4
Atom  21H    basis set group =>   3
Atom  22H    basis set group =>   3
Atom  23O    basis set group =>   4
------------------------------------------------------------------------------
                             ORCA STARTUP CALCULATIONS
------------------------------------------------------------------------------
------------------------------------------------------------------------------
                   ___                                                        
                  /   \      - P O W E R E D   B Y -                         
                 /     \                                                     
                 |  |  |   _    _      __       _____    __    __             
                 |  |  |  | |  | |    /  \     |  _  \  |  |  /  |          
                  \  \/   | |  | |   /    \    | | | |  |  | /  /          
                 / \  \   | |__| |  /  /\  \   | |_| |  |  |/  /          
                |  |  |   |  __  | /  /__\  \  |    /   |      \           
                |  |  |   | |  | | |   __   |  |    \   |  |\   \          
                \     /   | |  | | |  |  |  |  | |\  \  |  | \   \       
                 \___/    |_|  |_| |__|  |__|  |_| \__\ |__|  \__/        
                                                                              
                      - O R C A' S   B I G   F R I E N D -                    
                                      &                                       
                       - I N T E G R A L  F E E D E R -                       
                                                                              
 v1 FN, 2020, v2 2021, v3 2022-2024                                           
------------------------------------------------------------------------------


----------------------
SHARK INTEGRAL PACKAGE
----------------------

Number of atoms                             ...     24
Number of basis functions                   ...    219
Number of shells                            ...    105
Maximum angular momentum                    ...      2
Integral batch strategy                     ... SHARK/LIBINT Hybrid
RI-J (if used) integral strategy            ... SPLIT-RIJ (Revised 2003 algorithm where possible)
Printlevel                                  ...      1
Contraction scheme used                     ... SEGMENTED contraction
Prescreening option                         ... SCHWARTZ
   Thresh                                   ... 1.000e-10
   Tcut                                     ... 1.000e-11
   Tpresel                                  ... 1.000e-11 
Coulomb Range Separation                    ... NOT USED
Exchange Range Separation                   ... NOT USED
Multipole approximations                    ... NOT USED
Finite Nucleus Model                        ... NOT USED
CABS basis                                  ... NOT available
Auxiliary Coulomb fitting basis             ... NOT available
Auxiliary J/K fitting basis                 ... NOT available
Auxiliary Correlation fitting basis         ... NOT available
Auxiliary 'external' fitting basis          ... NOT available

Checking pre-screening integrals            ... done (  0.0 sec) Dimension = 105
   => SHARK Basis and OBASIS are compatible. Storing Pre-screening
Shell pair information
Shell pair cut-off parameter TPreSel        ...   1.0e-11
Total number of shell pairs                 ...      5565
Shell pairs after pre-screening             ...      4939
Total number of primitive shell pairs       ...     26835
Primitive shell pairs kept                  ...     15435
          la=0 lb=0:   1576 shell pairs
          la=1 lb=0:   1825 shell pairs
          la=1 lb=1:    554 shell pairs
          la=2 lb=0:    577 shell pairs
          la=2 lb=1:    346 shell pairs
          la=2 lb=2:     61 shell pairs

Checking whether 4 symmetric matrices of dimension 219 fit in memory
:Max Core in MB      =   4096.00
 MB in use           =      7.82
 MB left             =   4088.18
 MB needed           =      0.74
 Data fit in memory  = YES
Calculating Nuclear repulsion               ... done (  0.0 sec) ENN=    698.344196311287 Eh

Diagonalization of the overlap matrix:
Smallest eigenvalue                        ... 2.269e-03
Time for diagonalization                   ...    0.003 sec
Threshold for overlap eigenvalues          ... 1.000e-07
Number of eigenvalues below threshold      ... 0
Time for construction of square roots      ...    0.001 sec
Total time needed                          ...    0.004 sec

-------------------
DFT GRID GENERATION
-------------------

General Integration Accuracy     IntAcc      ... 4.388
Radial Grid Type                 RadialGrid  ... OptM3 with GC (2021)
Angular Grid (max. ang.)         AngularGrid ... 4 (Lebedev-302)
Angular grid pruning method      GridPruning ... 4 (adaptive)
Weight generation scheme         WeightScheme... mBecke (2022)
Basis function cutoff            BFCut       ... 1.0000e-10
Integration weight cutoff        WCut        ... 1.0000e-14
Partially contracted basis set               ... off
Rotationally invariant grid construction     ... off
Angular grids for H and He will be reduced by one unit

Total number of grid points                  ...   107302
Total number of batches                      ...     1690
Average number of points per batch           ...       63
Average number of grid points per atom       ...     4471
Grids setup in   0.5 sec
Initializing property integral containers    ... done (  0.0 sec)

SHARK setup successfully completed in   0.5 seconds

Maximum memory used throughout the entire STARTUP-calculation: 43.9 MB
-------------------------------------------------------------------------------
                                 ORCA GUESS
                   Start orbitals & Density for SCF / CASSCF
-------------------------------------------------------------------------------

------------
SCF SETTINGS
------------
Hamiltonian:
 Ab initio Hamiltonian  Method          .... Hartree-Fock(GTOs)


General Settings:
 Integral files         IntName         .... 3
 Hartree-Fock type      HFTyp           .... RHF
 Total Charge           Charge          ....    0
 Multiplicity           Mult            ....    1
 Number of Electrons    NEL             ....   86
 Basis Dimension        Dim             ....  219
 Nuclear Repulsion      ENuc            ....    698.3441963113 Eh

Convergence Acceleration:
 AO-DIIS                CNVDIIS         .... on
   Start iteration      DIISMaxIt       ....    12
   Startup error        DIISStart       ....  0.200000
   # of expansion vecs  DIISMaxEq       ....     5
   Bias factor          DIISBfac        ....   1.050
   Max. coefficient     DIISMaxC        ....  10.000
 MO-DIIS                CNVKDIIS        .... off
 Trust-Rad. Augm. Hess. CNVTRAH         .... auto
   Auto Start mean grad. ratio tolernc. ....  1.125000
   Auto Start start iteration           ....    50
   Auto Start num. interpolation iter.  ....    10
   Max. Number of Micro iterations      ....    24
   Max. Number of Macro iterations      .... Maxiter - #DIIS iter
   Number of Davidson start vectors     ....     2
   Converg. threshold    (grad. norm)   ....   5.000e-05
   Grad. Scal. Fac. for Micro threshold ....   0.100
   Minimum threshold for Micro iter.    ....   1.000e-02
   NR start threshold (gradient norm)   ....   1.000e-04
   Initial trust radius                 ....   0.400
   Minimum AH scaling param. (alpha)    ....   1.000
   Maximum AH scaling param. (alpha)    .... 1000.000
   Quad. conv. algorithm                .... NR
   White noise on init. David. guess    .... on
   Maximum white noise                  ....   0.010
   Pseudo random numbers                .... off
   Inactive MOs                         .... canonical
   Orbital update algorithm             .... Taylor
   Preconditioner                       .... Diag
   Full preconditioner red. dimension   ....   250
 SOSCF                 CNVSOSCF           .... on
   Start iteration     SOSCFMaxIt         ....   150
   Startup grad/error  SOSCFStart         ....  0.003300
   Hessian update      SOSCFHessUp        .... L-BFGS
   Autom. constraints  SOSCFAutoConstrain .... off
 Level Shifting         CNVShift        .... on
   Level shift para.    LevelShift      ....    0.2500
   Turn off err/grad.   ShiftErr        ....    0.0010
 Zerner damping         CNVZerner       .... off
 Static damping         CNVDamp         .... on
   Fraction old density DampFac         ....    0.7000
   Max. Damping (<1)    DampMax         ....    0.9800
   Min. Damping (>=0)   DampMin         ....    0.0000
   Turn off err/grad.   DampErr         ....    0.1000

SCF Procedure:
 Maximum # iterations   MaxIter         ....   125
 SCF integral mode      SCFMode         .... Direct
   Integral package                     .... SHARK and LIBINT hybrid scheme
 Reset frequency        DirectResetFreq ....    20
 Integral Threshold     Thresh          ....  1.000e-10 Eh
 Primitive CutOff       TCut            ....  1.000e-11 Eh

Convergence Tolerance:
 Convergence Check Mode ConvCheckMode   .... Total+1el-Energy
 Convergence forced     ConvForced      .... 1
 Energy Change          TolE            ....  1.000e-06 Eh
 1-El. energy change                    ....  1.000e-03 Eh
 Orbital Gradient       TolG            ....  5.000e-05
 Orbital Rotation angle TolX            ....  5.000e-05
 DIIS Error             TolErr          ....  1.000e-06

------------------------------
INITIAL GUESS: MODEL POTENTIAL
------------------------------
Loading Hartree-Fock densities                     ... done
Calculating cut-offs                               ... done
Initializing the effective Hamiltonian             ... done
Setting up the integral package (SHARK)            ... done
Starting the Coulomb interaction                   ... done (   0.1 sec)
Making the grid                                    ... done (   0.1 sec)
Mapping shells                                     ... done
Starting the XC term evaluation                    ... done (   0.1 sec)
Transforming the Hamiltonian                       ... done (   0.0 sec)
Diagonalizing the Hamiltonian                      ... done (   0.0 sec)
Back transforming the eigenvectors                 ... done (   0.0 sec)
Now organizing SCF variables                       ... done
                      ------------------
                      INITIAL GUESS DONE (   0.3 sec)
                      ------------------
             **** ENERGY FILE WAS UPDATED (3.en.tmp) ****
Finished Guess after   0.3 sec
Maximum memory used throughout the entire GUESS-calculation: 14.1 MB

-------------------------------------------------------------------------------------------
                                      ORCA LEAN-SCF
                              memory conserving SCF solver
-------------------------------------------------------------------------------------------

----------------------------------------D-I-I-S--------------------------------------------
Iteration    Energy (Eh)           Delta-E    RMSDP     MaxDP     DIISErr   Damp  Time(sec)
-------------------------------------------------------------------------------------------
               ***  Starting incremental Fock matrix formation  ***
    1    -547.3825699344982922     0.00e+00  2.38e-03  6.38e-02  2.46e-01  0.700   3.2
    2    -547.5515410931080851    -1.69e-01  1.78e-03  4.57e-02  1.49e-01  0.700   3.0
                               ***Turning on AO-DIIS***
    3    -547.6509478321842153    -9.94e-02  9.80e-04  2.02e-02  8.45e-02  0.700   2.9
    4    -547.7138635310105883    -6.29e-02  2.28e-03  4.23e-02  5.71e-02  0.000   2.9
    5    -547.8545609857359295    -1.41e-01  2.61e-04  4.78e-03  5.58e-03  0.000   3.0
                              *** Initializing SOSCF ***
---------------------------------------S-O-S-C-F--------------------------------------
Iteration    Energy (Eh)           Delta-E    RMSDP     MaxDP     MaxGrad    Time(sec)
--------------------------------------------------------------------------------------
    6    -547.8551326425468915    -5.72e-04  1.31e-04  2.89e-03  2.51e-03     2.8
               *** Restarting incremental Fock matrix formation ***
    7    -547.8552488879153088    -1.16e-04  7.15e-05  1.87e-03  7.43e-04     3.2
    8    -547.8552761994491220    -2.73e-05  6.24e-05  1.90e-03  4.27e-04     2.5
    9    -547.8552843160390466    -8.12e-06  1.08e-05  1.91e-04  1.25e-04     2.5
   10    -547.8552848896316618    -5.74e-07  5.05e-06  1.19e-04  3.38e-05     2.2
                 **** Energy Check signals convergence ****

               *****************************************************
               *                     SUCCESS                       *
               *           SCF CONVERGED AFTER  10 CYCLES          *
               *****************************************************

             **** ENERGY FILE WAS UPDATED (3.en.tmp) ****

----------------
TOTAL SCF ENERGY
----------------

Total Energy       :       -547.85528497017697 Eh          -14907.90021 eV

Components:
Nuclear Repulsion  :        698.34419631128674 Eh           19002.91167 eV
Electronic Energy  :      -1246.19948128146370 Eh          -33910.81188 eV
One Electron Energy:      -2135.22065511270512 Eh          -58102.30789 eV
Two Electron Energy:        889.02117383124141 Eh           24191.49601 eV

Virial components:
Potential Energy   :      -1095.24711948739468 Eh          -29803.18929 eV
Kinetic Energy     :        547.39183451721772 Eh           14895.28908 eV
Virial Ratio       :          2.00084665211232

---------------
SCF CONVERGENCE
---------------

  Last Energy change         ...    5.7359e-07  Tolerance :   1.0000e-06
  Last MAX-Density change    ...    1.1876e-04  Tolerance :   1.0000e-05
  Last RMS-Density change    ...    5.0470e-06  Tolerance :   1.0000e-06
  Last DIIS Error            ...    2.5086e-03  Tolerance :   1.0000e-06
  Last Orbital Gradient      ...    3.3821e-05  Tolerance :   5.0000e-05
  Last Orbital Rotation      ...    8.2311e-05  Tolerance :   5.0000e-05


----------------
ORBITAL ENERGIES
----------------

  NO   OCC          E(Eh)            E(eV) 
   0   2.0000     -20.592220      -560.3428 
   1   2.0000     -20.518568      -558.3386 
   2   2.0000     -15.554688      -423.2646 
   3   2.0000     -15.546290      -423.0361 
   4   2.0000     -15.544103      -422.9765 
   5   2.0000     -11.368524      -309.3533 
   6   2.0000     -11.272898      -306.7511 
   7   2.0000     -11.260014      -306.4005 
   8   2.0000     -11.259913      -306.3978 
   9   2.0000     -11.250233      -306.1344 
  10   2.0000     -11.220392      -305.3224 
  11   2.0000      -1.439880       -39.1811 
  12   2.0000      -1.333295       -36.2808 
  13   2.0000      -1.279508       -34.8172 
  14   2.0000      -1.190761       -32.4023 
  15   2.0000      -1.150330       -31.3021 
  16   2.0000      -1.046354       -28.4727 
  17   2.0000      -0.968429       -26.3523 
  18   2.0000      -0.898975       -24.4624 
  19   2.0000      -0.845479       -23.0067 
  20   2.0000      -0.802323       -21.8323 
  21   2.0000      -0.768336       -20.9075 
  22   2.0000      -0.726354       -19.7651 
  23   2.0000      -0.691331       -18.8121 
  24   2.0000      -0.673300       -18.3214 
  25   2.0000      -0.664862       -18.0918 
  26   2.0000      -0.647410       -17.6169 
  27   2.0000      -0.642635       -17.4870 
  28   2.0000      -0.597088       -16.2476 
  29   2.0000      -0.589714       -16.0469 
  30   2.0000      -0.577923       -15.7261 
  31   2.0000      -0.567607       -15.4454 
  32   2.0000      -0.549448       -14.9512 
  33   2.0000      -0.528221       -14.3736 
  34   2.0000      -0.515071       -14.0158 
  35   2.0000      -0.500983       -13.6324 
  36   2.0000      -0.485627       -13.2146 
  37   2.0000      -0.472428       -12.8554 
  38   2.0000      -0.458291       -12.4707 
  39   2.0000      -0.438086       -11.9209 
  40   2.0000      -0.400018       -10.8850 
  41   2.0000      -0.382274       -10.4022 
  42   2.0000      -0.368972       -10.0402 
  43   0.0000       0.193798         5.2735 
  44   0.0000       0.213872         5.8198 
  45   0.0000       0.242256         6.5921 
  46   0.0000       0.249480         6.7887 
  47   0.0000       0.254916         6.9366 
  48   0.0000       0.267480         7.2785 
  49   0.0000       0.283604         7.7173 
  50   0.0000       0.302356         8.2275 
  51   0.0000       0.305674         8.3178 
  52   0.0000       0.312067         8.4918 
  53   0.0000       0.331085         9.0093 
*Only the first 10 virtual orbitals were printed.

                    ********************************
                    * MULLIKEN POPULATION ANALYSIS *
                    ********************************

-----------------------
MULLIKEN ATOMIC CHARGES
-----------------------
   0 C :    0.144073
   1 N :   -0.712042
   2 H :    0.257971
   3 C :    0.018968
   4 N :   -0.620518
   5 H :    0.164726
   6 H :    0.123577
   7 C :   -0.045305
   8 H :    0.282451
   9 H :    0.135076
  10 H :    0.122150
  11 C :   -0.207733
  12 H :    0.128189
  13 C :   -0.001057
  14 H :    0.134843
  15 H :    0.139472
  16 C :    0.890569
  17 H :    0.281029
  18 N :   -0.694169
  19 H :    0.271579
  20 O :   -0.665878
  21 H :    0.143563
  22 H :    0.357195
  23 O :   -0.648727
Sum of atomic charges:   -0.0000000

--------------------------------
MULLIKEN REDUCED ORBITAL CHARGES
--------------------------------
  0 C s       :     3.139930  s :     3.139930
      pz      :     0.973221  p :     2.636070
      px      :     0.688459
      py      :     0.974389
      dz2     :     0.020176  d :     0.079928
      dxz     :     0.015452
      dyz     :     0.009802
      dx2y2   :     0.021322
      dxy     :     0.013177

  1 N s       :     3.639661  s :     3.639661
      pz      :     1.509273  p :     4.033452
      px      :     1.372533
      py      :     1.151646
      dz2     :     0.007073  d :     0.038929
      dxz     :     0.003263
      dyz     :     0.010316
      dx2y2   :     0.013552
      dxy     :     0.004726

  2 H s       :     0.716091  s :     0.716091
      pz      :     0.013209  p :     0.025937
      px      :     0.007084
      py      :     0.005644

  3 C s       :     3.184633  s :     3.184633
      pz      :     0.999032  p :     2.728891
      px      :     0.976170
      py      :     0.753688
      dz2     :     0.011775  d :     0.067509
      dxz     :     0.013240
      dyz     :     0.012747
      dx2y2   :     0.019023
      dxy     :     0.010724

  4 N s       :     3.628569  s :     3.628569
      pz      :     1.227689  p :     3.950478
      px      :     1.610469
      py      :     1.112320
      dz2     :     0.009852  d :     0.041471
      dxz     :     0.004379
      dyz     :     0.009985
      dx2y2   :     0.003796
      dxy     :     0.013459

  5 H s       :     0.823275  s :     0.823275
      pz      :     0.009068  p :     0.011999
      px      :     0.001031
      py      :     0.001899

  6 H s       :     0.864191  s :     0.864191
      pz      :     0.001613  p :     0.012232
      px      :     0.001819
      py      :     0.008801

  7 C s       :     3.190158  s :     3.190158
      pz      :     1.085285  p :     2.793199
      px      :     0.844613
      py      :     0.863301
      dz2     :     0.011337  d :     0.061947
      dxz     :     0.004840
      dyz     :     0.015088
      dx2y2   :     0.015862
      dxy     :     0.014821

  8 H s       :     0.692052  s :     0.692052
      pz      :     0.011249  p :     0.025497
      px      :     0.005993
      py      :     0.008256

  9 H s       :     0.852897  s :     0.852897
      pz      :     0.005654  p :     0.012028
      px      :     0.002167
      py      :     0.004207

 10 H s       :     0.865365  s :     0.865365
      pz      :     0.007601  p :     0.012485
      px      :     0.001921
      py      :     0.002963

 11 C s       :     3.227686  s :     3.227686
      pz      :     0.977721  p :     2.932764
      px      :     0.952737
      py      :     1.002306
      dz2     :     0.007291  d :     0.047283
      dxz     :     0.013929
      dyz     :     0.007969
      dx2y2   :     0.008566
      dxy     :     0.009528

 12 H s       :     0.859746  s :     0.859746
      pz      :     0.006851  p :     0.012065
      px      :     0.003903
      py      :     0.001311

 13 C s       :     3.196959  s :     3.196959
      pz      :     0.913607  p :     2.733611
      px      :     0.956243
      py      :     0.863761
      dz2     :     0.012687  d :     0.070486
      dxz     :     0.018555
      dyz     :     0.012277
      dx2y2   :     0.011746
      dxy     :     0.015221

 14 H s       :     0.852525  s :     0.852525
      pz      :     0.006275  p :     0.012632
      px      :     0.004675
      py      :     0.001682

 15 H s       :     0.847968  s :     0.847968
      pz      :     0.002163  p :     0.012560
      px      :     0.002417
      py      :     0.007980

 16 C s       :     2.944321  s :     2.944321
      pz      :     0.644732  p :     2.019143
      px      :     0.613659
      py      :     0.760752
      dz2     :     0.030323  d :     0.145967
      dxz     :     0.021659
      dyz     :     0.034056
      dx2y2   :     0.023409
      dxy     :     0.036520

 17 H s       :     0.692972  s :     0.692972
      pz      :     0.010964  p :     0.026000
      px      :     0.008269
      py      :     0.006767

 18 N s       :     3.614026  s :     3.614026
      pz      :     1.187759  p :     4.045292
      px      :     1.211921
      py      :     1.645611
      dz2     :     0.004555  d :     0.034851
      dxz     :     0.012779
      dyz     :     0.006444
      dx2y2   :     0.002191
      dxy     :     0.008883

 19 H s       :     0.702348  s :     0.702348
      pz      :     0.004894  p :     0.026072
      px      :     0.012588
      py      :     0.008591

 20 O s       :     3.849193  s :     3.849193
      pz      :     1.774605  p :     4.791477
      px      :     1.734980
      py      :     1.281891
      dz2     :     0.002895  d :     0.025208
      dxz     :     0.004005
      dyz     :     0.007250
      dx2y2   :     0.003065
      dxy     :     0.007993

 21 H s       :     0.844491  s :     0.844491
      pz      :     0.005684  p :     0.011946
      px      :     0.004612
      py      :     0.001650

 22 H s       :     0.601411  s :     0.601411
      pz      :     0.011433  p :     0.041394
      px      :     0.009179
      py      :     0.020782

 23 O s       :     3.882877  s :     3.882877
      pz      :     1.433138  p :     4.734633
      px      :     1.476091
      py      :     1.825404
      dz2     :     0.010670  d :     0.031217
      dxz     :     0.008798
      dyz     :     0.004076
      dx2y2   :     0.004724
      dxy     :     0.002949



                     *******************************
                     * LOEWDIN POPULATION ANALYSIS *
                     *******************************

----------------------
LOEWDIN ATOMIC CHARGES
----------------------
   0 C :    0.028815
   1 N :   -0.216217
   2 H :    0.121383
   3 C :   -0.009575
   4 N :   -0.249642
   5 H :    0.074133
   6 H :    0.064238
   7 C :   -0.043080
   8 H :    0.128055
   9 H :    0.064591
  10 H :    0.063420
  11 C :   -0.110108
  12 H :    0.060060
  13 C :   -0.015027
  14 H :    0.070464
  15 H :    0.073387
  16 C :    0.244500
  17 H :    0.133959
  18 N :   -0.277865
  19 H :    0.129140
  20 O :   -0.229907
  21 H :    0.070843
  22 H :    0.190659
  23 O :   -0.366226

-------------------------------
LOEWDIN REDUCED ORBITAL CHARGES
-------------------------------
  0 C s       :     2.870669  s :     2.870669
      pz      :     1.034257  p :     2.940390
      px      :     0.876595
      py      :     1.029538
      dz2     :     0.039833  d :     0.160126
      dxz     :     0.032981
      dyz     :     0.017268
      dx2y2   :     0.043004
      dxy     :     0.027040

  1 N s       :     3.177016  s :     3.177016
      pz      :     1.444122  p :     3.961921
      px      :     1.348958
      py      :     1.168841
      dz2     :     0.011008  d :     0.077280
      dxz     :     0.008130
      dyz     :     0.018876
      dx2y2   :     0.027069
      dxy     :     0.012196

  2 H s       :     0.797016  s :     0.797016
      pz      :     0.040157  p :     0.081601
      px      :     0.023737
      py      :     0.017707

  3 C s       :     2.876835  s :     2.876835
      pz      :     1.046591  p :     2.995899
      px      :     1.037112
      py      :     0.912197
      dz2     :     0.021991  d :     0.136840
      dxz     :     0.024238
      dyz     :     0.028059
      dx2y2   :     0.039076
      dxy     :     0.023477

  4 N s       :     3.187994  s :     3.187994
      pz      :     1.239091  p :     3.980852
      px      :     1.584741
      py      :     1.157020
      dz2     :     0.018245  d :     0.080796
      dxz     :     0.008452
      dyz     :     0.020500
      dx2y2   :     0.009142
      dxy     :     0.024457

  5 H s       :     0.886300  s :     0.886300
      pz      :     0.028034  p :     0.039567
      px      :     0.004287
      py      :     0.007246

  6 H s       :     0.897505  s :     0.897505
      pz      :     0.006223  p :     0.038257
      px      :     0.005958
      py      :     0.026076

  7 C s       :     2.890914  s :     2.890914
      pz      :     1.084717  p :     3.031594
      px      :     0.976263
      py      :     0.970614
      dz2     :     0.019847  d :     0.120572
      dxz     :     0.009343
      dyz     :     0.027337
      dx2y2   :     0.034281
      dxy     :     0.029764

  8 H s       :     0.786957  s :     0.786957
      pz      :     0.038258  p :     0.084988
      px      :     0.021388
      py      :     0.025342

  9 H s       :     0.896259  s :     0.896259
      pz      :     0.017361  p :     0.039150
      px      :     0.007539
      py      :     0.014250

 10 H s       :     0.897165  s :     0.897165
      pz      :     0.022547  p :     0.039414
      px      :     0.006619
      py      :     0.010248

 11 C s       :     2.894620  s :     2.894620
      pz      :     1.044734  p :     3.124812
      px      :     1.029494
      py      :     1.050584
      dz2     :     0.014346  d :     0.090676
      dxz     :     0.026351
      dyz     :     0.015439
      dx2y2   :     0.015832
      dxy     :     0.018708

 12 H s       :     0.900485  s :     0.900485
      pz      :     0.020738  p :     0.039454
      px      :     0.012969
      py      :     0.005747

 13 C s       :     2.871088  s :     2.871088
      pz      :     0.987511  p :     3.003290
      px      :     1.022557
      py      :     0.993221
      dz2     :     0.025525  d :     0.140649
      dxz     :     0.034845
      dyz     :     0.024831
      dx2y2   :     0.024015
      dxy     :     0.031433

 14 H s       :     0.888569  s :     0.888569
      pz      :     0.019073  p :     0.040968
      px      :     0.014889
      py      :     0.007006

 15 H s       :     0.886078  s :     0.886078
      pz      :     0.008005  p :     0.040535
      px      :     0.008465
      py      :     0.024065

 16 C s       :     2.856145  s :     2.856145
      pz      :     0.835007  p :     2.581887
      px      :     0.807209
      py      :     0.939671
      dz2     :     0.061140  d :     0.317468
      dxz     :     0.051302
      dyz     :     0.074671
      dx2y2   :     0.048361
      dxy     :     0.081995

 17 H s       :     0.784142  s :     0.784142
      pz      :     0.033969  p :     0.081899
      px      :     0.025412
      py      :     0.022518

 18 N s       :     3.191697  s :     3.191697
      pz      :     1.203752  p :     4.024763
      px      :     1.209744
      py      :     1.611267
      dz2     :     0.009641  d :     0.061406
      dxz     :     0.022565
      dyz     :     0.011018
      dx2y2   :     0.004590
      dxy     :     0.013592

 19 H s       :     0.789453  s :     0.789453
      pz      :     0.015434  p :     0.081408
      px      :     0.036509
      py      :     0.029465

 20 O s       :     3.465228  s :     3.465228
      pz      :     1.737933  p :     4.717418
      px      :     1.705316
      py      :     1.274169
      dz2     :     0.005053  d :     0.047261
      dxz     :     0.005426
      dyz     :     0.012493
      dx2y2   :     0.009796
      dxy     :     0.014492

 21 H s       :     0.889834  s :     0.889834
      pz      :     0.018020  p :     0.039323
      px      :     0.015294
      py      :     0.006009

 22 H s       :     0.688646  s :     0.688646
      pz      :     0.034919  p :     0.120695
      px      :     0.028957
      py      :     0.056819

 23 O s       :     3.546816  s :     3.546816
      pz      :     1.477550  p :     4.764019
      px      :     1.502387
      py      :     1.784083
      dz2     :     0.013613  d :     0.055390
      dxz     :     0.020701
      dyz     :     0.008044
      dx2y2   :     0.007181
      dxy     :     0.005852



                      *****************************
                      * MAYER POPULATION ANALYSIS *
                      *****************************

  NA   - Mulliken gross atomic population
  ZA   - Total nuclear charge
  QA   - Mulliken gross atomic charge
  VA   - Mayer's total valence
  BVA  - Mayer's bonded valence
  FA   - Mayer's free valence

  ATOM       NA         ZA         QA         VA         BVA        FA
  0 C      5.8559     6.0000     0.1441     3.7160     3.7160     0.0000
  1 N      7.7120     7.0000    -0.7120     2.6702     2.6702    -0.0000
  2 H      0.7420     1.0000     0.2580     0.9080     0.9080    -0.0000
  3 C      5.9810     6.0000     0.0190     3.6920     3.6920    -0.0000
  4 N      7.6205     7.0000    -0.6205     2.7348     2.7348    -0.0000
  5 H      0.8353     1.0000     0.1647     0.9455     0.9455     0.0000
  6 H      0.8764     1.0000     0.1236     0.9561     0.9561    -0.0000
  7 C      6.0453     6.0000    -0.0453     3.7739     3.7739    -0.0000
  8 H      0.7175     1.0000     0.2825     0.9009     0.9009    -0.0000
  9 H      0.8649     1.0000     0.1351     0.9449     0.9449    -0.0000
 10 H      0.8779     1.0000     0.1221     0.9535     0.9535     0.0000
 11 C      6.2077     6.0000    -0.2077     3.7643     3.7643    -0.0000
 12 H      0.8718     1.0000     0.1282     0.9503     0.9503     0.0000
 13 C      6.0011     6.0000    -0.0011     3.7606     3.7606    -0.0000
 14 H      0.8652     1.0000     0.1348     0.9573     0.9573    -0.0000
 15 H      0.8605     1.0000     0.1395     0.9524     0.9524    -0.0000
 16 C      5.1094     6.0000     0.8906     3.5642     3.5642    -0.0000
 17 H      0.7190     1.0000     0.2810     0.9071     0.9071    -0.0000
 18 N      7.6942     7.0000    -0.6942     2.7692     2.7692    -0.0000
 19 H      0.7284     1.0000     0.2716     0.9048     0.9048    -0.0000
 20 O      8.6659     8.0000    -0.6659     1.7880     1.7880    -0.0000
 21 H      0.8564     1.0000     0.1436     0.9450     0.9450    -0.0000
 22 H      0.6428     1.0000     0.3572     0.8847     0.8847    -0.0000
 23 O      8.6487     8.0000    -0.6487     1.8203     1.8203    -0.0000

  Mayer bond orders larger than 0.100000
B(  0-C ,  1-N ) :   0.8827 B(  0-C ,  4-N ) :   0.9417 B(  0-C ,  5-H ) :   0.9573 
B(  0-C ,  6-H ) :   0.9812 B(  1-N ,  3-C ) :   0.9158 B(  1-N ,  8-H ) :   0.9015 
B(  2-H ,  4-N ) :   0.9102 B(  3-C ,  7-C ) :   0.9441 B(  3-C , 11-C ) :   0.9556 
B(  3-C , 12-H ) :   0.9756 B(  4-N ,  7-C ) :   0.9446 B(  7-C ,  9-H ) :   0.9703 
B(  7-C , 10-H ) :   0.9784 B( 11-C , 13-C ) :   0.9721 B( 11-C , 14-H ) :   0.9628 
B( 11-C , 15-H ) :   0.9703 B( 13-C , 16-C ) :   0.9008 B( 13-C , 18-N ) :   0.9833 
B( 13-C , 21-H ) :   0.9624 B( 16-C , 20-O ) :   0.9228 B( 16-C , 23-O ) :   1.7382 
B( 17-H , 18-N ) :   0.8975 B( 18-N , 19-H ) :   0.9092 B( 20-O , 22-H ) :   0.8515 


-------
TIMINGS
-------

Total SCF time: 0 days 0 hours 0 min 30 sec 

Total time                  ....      30.260 sec
Sum of individual times     ....      28.214 sec  ( 93.2%)

SCF preparation             ....       0.017 sec  (  0.1%)
Fock matrix formation       ....      28.128 sec  ( 93.0%)
  Startup                   ....       0.001 sec  (  0.0% of F)
  Coulomb+Exchange Fock     ....      30.164 sec  (107.2% of F)
Diagonalization             ....       0.000 sec  (  0.0%)
Density matrix formation    ....       0.004 sec  (  0.0%)
Total Energy calculation    ....       0.001 sec  (  0.0%)
Population analysis         ....       0.004 sec  (  0.0%)
Orbital Transformation      ....       0.008 sec  (  0.0%)
Orbital Orthonormalization  ....       0.000 sec  (  0.0%)
DIIS solution               ....       0.036 sec  (  0.1%)
SOSCF solution              ....       0.015 sec  (  0.0%)
Finished LeanSCF after  30.3 sec

Maximum memory used throughout the entire LEANSCF-calculation: 17.7 MB

------------------------------------------------------------------------------
                                ORCA  MP2 
------------------------------------------------------------------------------

Freezing NCore=22 chemical core electrons

----------
MP2 ENERGY (disk based algorithm)
----------

Dimension of the basis                      ...  219
Memory devoted to MP2                       ... 4096 MB   
Data format for buffers                     ... DOUBLE
Compression type for matrix containers      ... UNCOMPRESSED

-------------------------
SHARK HALF TRANSFORMATION (Exchange order)
-------------------------

Number of basis functions                   ...    219
Number of operators                         ...      1
   Operator  0:   11-  42 (p-index in (p*|q*))
   Operator  0:   11-  42 (q-index in (p*|q*)
Integral generator used                     ... SHARK
Contraction scheme used                     ... SEGMENTED CONTRACTION
MaxCore in resort                           ...   4096 MB

Half transformed integrals for op=   0      ... 3.SHARK_MNPQ0.tmp
Resorted half transformed integrals         ... 3.KAO_aa.tmp

Half trafo (segmented) done. Total time = 20.1 sec. integrals= 18.1 sec trafo=  1.8 sec

----------------------
SHARK INTEGRAL SORTING (Exchange)
----------------------

Input container                             ... 3.SHARK_MNPQ0.tmp
Output container                            ... 3.KAO_aa.tmp
Range of AO-indices                         ...    0 -  218
Range of bra indices i                      ...   11 -   42
Range of ket indices j                      ...   11 -   42
Symmetric i,j range                         ... YES
Number of (i,j) pairs generated             ...  528
Max Core memory in MB                       ...   4096

Available core memory in MB                 ...   4083.50
MB needed for one item                      ...      0.37
Fixed MB needed                             ...      0.00
Number of items                             ...       528
Number of batches                           ...         1
Items treated per batch                     ...       528
Batch   0                                   ...      0-   527 (   528)
   => Closing output file and leaving
done (  0.2 sec)

SHARK half integral transformation done. Total time = 20.4 sec.


Finished integral transformation - now doing MP2 part

OPERATOR COMBINATION   0   0: ij=( 11.. 42, 11.. 42)
  Internal MO  13
  Internal MO  16
  Internal MO  19
  Internal MO  22
  Internal MO  25
  Internal MO  28
  Internal MO  31
  Internal MO  34
  Internal MO  37
  Internal MO  40
-----------------------------------------------
 MP2 CORRELATION ENERGY   :     -1.686600065 Eh
-----------------------------------------------


-------
TIMINGS
-------
Total time                :   20.653 sec
Integral trafo            :   20.359 sec ( 98.6%)
K(i,j)                    :    0.248 sec (  1.2%)
T(i,j)                    :    0.007 sec (  0.0%)

---------------------------------------
MP2 TOTAL ENERGY:     -549.541885035 Eh
---------------------------------------

Maximum memory used throughout the entire MP2-calculation: 207.2 MB

-------------------------   --------------------
FINAL SINGLE POINT ENERGY      -549.541885035427
-------------------------   --------------------


------------------------------------------------------------------------------
                              ORCA PROPERTY CALCULATIONS
------------------------------------------------------------------------------

GBWName                                 ... 3.gbw
Number of atoms                         ...     24
Number of basis functions               ...    219
Max core memory                         ...   4096 MB

Electric properties:
Dipole moment                           ... YES
Quadrupole moment                       ...  NO
Static polarizability (Dipole/Dipole)   ...  NO
Static polarizability (Dipole/Quad.)    ...  NO
Static polarizability (Quad./Quad.)     ...  NO
Static polarizability (Velocity)        ...  NO
Static hyperpolarizability              ...  NO

Atomic electric properties:
Dipole moment                           ...  NO
Quadrupole moment                       ...  NO
Static polarizability                   ...  NO

Choice of electric origin               ... Center of mass
Position of electric origin             ...   -13.008329     5.977893    -0.440434

General magnetic properties:
Magnetizability                         ...  NO

EPR properties:
g-Tensor (aka g-matrix)                 ...  NO
Zero-Field splitting spin-orbit         ...  NO
Zero-field splitting spin-spin          ...  NO
Hyperfine couplings                     ...  NO (   0 nuclei)
Quadrupole couplings                    ...  NO (   0 nuclei)
Contact density                         ...  NO (   0 nuclei)

NMR properties:
Chemical shifts                         ...  NO (   0 nuclei)
Spin-rotation constants                 ...  NO (   0 nuclei)
Spin-spin couplings                     ...  NO (   0 nuclei,    0 pairs)

Choice of magnetic origin               ... GIAO
Position of magnetic origin             ...     0.000000     0.000000     0.000000

Properties with geometric perturbations:
SCF Hessian                             ...  NO
IR spectrum                             ...  NO
VCD spectrum                            ...  NO
X-ray spectroscopy properties:
SCF XES/XAS/RIXS spectra                ...  NO

SCF SOC stabilization energy            ...  NO
Diagonal Born-Oppenheimer correction    ...  NO

-------------
DIPOLE MOMENT
-------------

Method             : SCF
Type of density    : Electron Density
Multiplicity       :   1
Irrep              :   0
Energy             :  -547.8552849701769674 Eh
Basis              : AO
                                X                 Y                 Z
Electronic contribution:      2.624902980      -4.413716419      -2.558072086
Nuclear contribution   :     -2.414231354       3.918714546       3.769845025
                        -----------------------------------------
Total Dipole Moment    :      0.210671625      -0.495001873       1.211772940
                        -----------------------------------------
Magnitude (a.u.)       :      1.325821649
Magnitude (Debye)      :      3.369970816



--------------------
Rotational spectrum 
--------------------
 
Rotational constants in cm-1:             0.063700             0.028691             0.023539 
Rotational constants in MHz :          1909.687269           860.132555           705.673073 

Dipole components along the rotational axes: 
x,y,z [a.u.] :     0.461776     0.286989     1.209216 
x,y,z [Debye]:     1.173741     0.729469     3.073583 

 

Dipole moment calculation done in   0.0 sec 

Maximum memory used throughout the entire PROP-calculation: 12.7 MB

--------------------------------
SUGGESTED CITATIONS FOR THIS RUN
--------------------------------

Below you find a list of papers that are relevant to this ORCA run
We neither can nor want to force you to cite these papers, but we appreciate if you do
You receive ORCA, which is the product of decades of hard work by many enthusiastic individuals, for free
The only thing we kindly ask in return is that you cite our papers,
We deeply appreciate it, if you show your appreciation for ORCA by not just citing the generic ORCA reference.

Please note that relegating all ORCA citations to the supporting information does *not* help us.
SI sections are not indexed - citations you put there will not count into any citation statistics
But we need these citations in order to attract the funding resources that allow us to do what we are doing

Therefore, if you are a happy ORCA user, please consider citing a few of the papers listed below in the main body of your paper

In addition to the list printed below, the program has created the file 3.bibtex that contains the list in bibtex format
You can import this file easily into all common literature databanks and citation aid programs


List of essential papers. We consider these as the minimum necessary citations

  1. Neese, F.
     Software update: the ORCA program system, version 6.0
     WIRES Comput. Molec. Sci. 2025 15(1), e70019
     doi.org/10.1002/wcms.7019

List of papers to cite with high priority. The work reported in these papers was absolutely
necessary for this run to complete.
Our perspective: the developers of density functionals and basis sets usually get cited in chemistry papers
Good! But without the algorithms to do something with them, the functionals or basis sets would not do anything.
Hence, in our opinion, the algorithm design and method developments papers are equally worthy of getting cited

  1. Neese, F.
     The SHARK Integral Generation and Digestion System
     J. Comp. Chem. 2022 44(3), 381
     doi.org/10.1002/jcc.26942

List of suggested additional citations. These are papers that are important in the 'surrounding' of 
of this run, or papers that preceded the highly important papers. If you like your results we are grateful for a citation.

  1. Neese, F.
     The ORCA program system
     WIRES Comput. Molec. Sci. 2012 2(1), 73-78
     doi.org/10.1002/wcms.81
  2. Neese, F.
     Software update: the ORCA program system, version 4.0
     WIRES Comput. Molec. Sci. 2018 8(1), 1-6
     doi.org/10.1002/wcms.1327
  3. Neese, F.; Wennmohs, F.; Becker, U.; Riplinger, C.
     The ORCA quantum chemistry program package
     J. Chem. Phys. 2020 152(22), 224108
     doi.org/10.1063/5.0004608
  4. Neese, F.
     Software update: The ORCA program system—Version 5.0
     WIRES Comput. Molec. Sci. 2022 12(1), e1606
     doi.org/10.1002/wcms.1606

List of optional additional citations

  1. Neese, F.
     Approximate second-order SCF convergence for spin unrestricted wavefunctions
     Chem. Phys. Lett. 2000 325(1-3), 93-98
     doi.org/10.1016/s0009-2614(00)00662-x

Timings for individual modules:

Sum of individual times          ...       51.849 sec (=   0.864 min)
Startup calculation              ...        0.539 sec (=   0.009 min)   1.0 %
SCF iterations                   ...       30.605 sec (=   0.510 min)  59.0 %
Property calculations            ...        0.026 sec (=   0.000 min)   0.1 %
MP2 module                       ...       20.679 sec (=   0.345 min)  39.9 %
                             ****ORCA TERMINATED NORMALLY****
TOTAL RUN TIME: 0 days 0 hours 0 minutes 51 seconds 894 msec
