
                                 *****************
                                 * O   R   C   A *
                                 *****************

                                            #,                                       
                                            ###                                      
                                            ####                                     
                                            #####                                    
                                            ######                                   
                                           ########,                                 
                                     ,,################,,,,,                         
                               ,,#################################,,                 
                          ,,##########################################,,             
                       ,#########################################, ''#####,          
                    ,#############################################,,   '####,        
                  ,##################################################,,,,####,       
                ,###########''''           ''''###############################       
              ,#####''   ,,,,##########,,,,          '''####'''          '####       
            ,##' ,,,,###########################,,,                        '##       
           ' ,,###''''                  '''############,,,                           
         ,,##''                                '''############,,,,        ,,,,,,###''
      ,#''                                            '''#######################'''  
     '                                                          ''''####''''         
             ,#######,   #######,   ,#######,      ##                                
            ,#'     '#,  ##    ##  ,#'     '#,    #''#        ,####,    ,#,          
            ##       ##  ##   ,#'  ##            #'  '#       #'       ,# #          
            ##       ##  #######   ##           ,######,      #####,      #          
            '#,     ,#'  ##    ##  '#,     ,#' ,#      #,     #,   #      #          
             '#######'   ##     ##  '#######'  #'      '#     '####' #    #          



                #########################################################
                #                        -***-                          #
                #          Department of theory and spectroscopy        #
                #                                                       #
                #                      Frank Neese                      #
                #                                                       #
                #     Directorship, Architecture, Infrastructure        #
                #                    SHARK, DRIVERS                     #
                #        Core code/Algorithms in most modules           #
                #                                                       #
                #        Max Planck Institute fuer Kohlenforschung      #
                #                Kaiser Wilhelm Platz 1                 #
                #                 D-45470 Muelheim/Ruhr                 #
                #                      Germany                          #
                #                                                       #
                #                  All rights reserved                  #
                #                        -***-                          #
                #########################################################


                         Program Version 6.1.0  -  RELEASE   -
                                (GIT: $679e74b$)
                          ($2025-06-10 18:02:51 +0200$)


 With contributions from (in alphabetic order):
[Max-Planck-Institut fuer Kohlenforschung]                               
  Daniel Aravena         : Magnetic Suceptibility                        
  Michael Atanasov       : Ab Initio Ligand Field Theory (pilot matlab implementation)
  Alexander A. Auer      : GIAO ZORA, VPT2 properties, NMR spectrum      
  Ute Becker             : All parallelization in ORCA, NUMFREQ, NUMCALC 
  Giovanni Bistoni       : ED, misc. LED, open-shell LED, HFLD           
  Dmytro Bykov           : pre 5.0 version of the SCF Hessian            
  Marcos Casanova-Páez   : Triplet and SCS-CIS(D). UHF-(DLPNO)-IP/EA/STEOM-CCSD. UHF-CVS-IP/STEOM-CCSD   
  Vijay G. Chilkuri      : MRCI spin determinant printing, contributions to CSF-ICE 
  Pauline Colinet        : FMM embedding                                 
  Dipayan Datta          : RHF DLPNO-CCSD density                        
  Achintya Kumar Dutta   : EOM-CC, STEOM-CC                              
  Nicolas Foglia         : Exact transition moments, OPA infrastructure, MCD improvements    
  Dmitry Ganyushin       : Spin-Orbit,Spin-Spin,Magnetic field MRCI      
  Miquel Garcia-Rates    : C-PCM and meta-GGA Hessian, CCSD/C-PCM, Gaussian charge scheme 
  Tiago L. C. Gouveia    : GS-ROHF, GS-ROCIS                             
  Yang Guo               : DLPNO-NEVPT2, F12-NEVPT2, CIM, IAO-localization        
  Andreas Hansen         : Spin unrestricted coupled pair/coupled cluster methods 
  Ingolf Harden          : AUTO-CI MPn and infrastructure                
  Benjamin Helmich-Paris : MC-RPA, TRAH-(SCF,CASSCF), AVAS, COSX integrals, SCF dyn. polar., MC-PDFT, srDFT 
  Lee Huntington         : MR-EOM, pCC                                   
  Robert Izsak           : Overlap fitted RIJCOSX, COSX-SCS-MP3, EOM     
  Riya Kayal             : Wick's Theorem for AUTO-CI, AUTO-CI UHF-CCSDT 
  Emily Kempfer          : AUTO-CI RHF CISDT and CCSDT, approximate NEVPT4
  Christian Kollmar      : KDIIS, OOCD, Brueckner-CCSD(T), CCSD density, CASPT2, CASPT2-K, improved NEVPT2 
  Axel Koslowski         : Symmetry handling                             
  Simone Kossmann        : meta-GGA functionals, TD-DFT gradient, OOMP2, (MP2 Hessian; deprecated post 5.0) 
  Lucas Lang             : DCDCAS, Hyperfine gauge corrections, ICE-SOC+SSC
  Marvin Lechner         : AUTO-CI (C++ implementation), FIC-MRCC        
  Spencer Leger          : CASSCF response                               
  Dagmar Lenk            : GEPOL surface, SMD, ORCA-2-JSON               
  Dimitrios Liakos       : Extrapolation schemes; Compound Job, Property file
  Dimitrios Manganas     : Further ROCIS development; embedding schemes. LFT, Crystal Embedding 
  Dimitrios Pantazis     : SARC Basis sets                               
  Anastasios Papadopoulos: AUTO-CI, single reference methods and gradients 
  Taras Petrenko         : pre 6.0 DFT Hessian and TD-DFT gradient,  ECA, NRVS 
  Petra Pikulova         : Analytic Raman intensities                    
  Peter Pinski           : DLPNO-MP2, DLPNO-MP2 Gradient                 
  Shashank Vittal Rao    : ES-AILFT, MagRelax                            
  Christoph Reimann      : Effective Core Potentials                     
  Marius Retegan         : Local ZFS, SOC                                
  Christoph Riplinger    : Optimizer, TS searches, QM/MM, DLPNO-CCSD(T), (RO)-DLPNO pert. Triples 
  Michael Roemelt        : Original ROCIS implementation, recursive CI coupling coefficients
  Masaaki Saitow         : Open-shell DLPNO-CCSD energy and density      
  Barbara Sandhoefer     : DKH picture change effects                    
  Yorick L. A. Schmerwitz: GMF and freeze-and-release deltaSCF, NEB S-IDPP initial path                    
  Kantharuban Sivalingam : CASSCF convergence/infrastructure, NEVPT2, NEVPT3, NEVPT4(SD), FIC-MRCI and CEPA variants
  Bernardo de Souza      : ESD, SOC TD-DFT                               
  Georgi L. Stoychev     : AutoAux, RI-MP2 NMR, DLPNO-MP2 response, X2C  
  Van Anh Tran           : RI-MP2 g-tensors                              
  Willem Van den Heuvel  : Paramagnetic NMR                              
  Zikuan Wang            : NOTCH, Electric field optimization            
  Frank Wennmohs         : Technical directorship and infrastructure     
  Hang Xu                : AUTO-CI-Response properties                   
                                                                         
[FACCTs GmbH]                                                            
  Markus Bursch, Nicolas Foglia, Miquel Garcia-Rates, Ingolf Harden, Hagen Neugebauer, Anastasios Papadopoulos, 
  Christoph Riplinger, Bernardo de Souza, Georgi L. Stoychev                                                    
                                                                 
  APM, various basis sets, CI-OPT, improved COSX, DLPNO-Multilevel,           
  DOCKER, DRACO, updates on ESD, Fragmentator, GOAT, IRC, LR-CPCM, L-BFGS, MBIS, meta-GGA TD-DFT gradient, ML-optimized integration grids, 
  MM, NACMEs, nearIR, NEB, NEB-TS, NL-DFT gradient (VV10), 2- and 3-layer-ONIOM, interface openCOSMO-RS, QMMM,   
  Crystal-QMMM, RESP, rigid body optimization, SF, symmetry and pop. for TD-DFT, various functionals, SOLVATOR                                   
                                                                         
[Other institutions]                                                     
  V. Asgeirsson          : NEB                                           
  Christoph Bannwarth    : sTDA-DFT, sTD-DFT, PBEh-3c, B97-3c, D3        
  Giovanni Bistoni       : ETS/NOCV, ADLD/ADEX, COVALED                  
  Martin Brehm           : Molecular dynamics                            
  Ronald Cardenas        : ETS/NOCV                                      
  Martina Colucci        : COVALED                                       
  Sebastian Ehlert       : rSCAN, r2SCAN, r2SCAN-3c, D4, dhf basis sets  
  Marvin Friede          : D4 for Fr, Ra, Ac-Lr                          
  Lars Goerigk           : TD-DFT with DH, B97 family of functionals     
  Stefan Grimme          : VdW corrections, initial TS optimization, DFT functionals, gCP, sTDA/sTD-DF 
  Waldemar Hujo          : DFT-NL                                        
  H. Jonsson             : NEB                                           
  Holger Kruse           : gCP                                           
  Marcel Mueller         : wB97X-3c, vDZP basis set                      
  Hagen Neugebauer       : wr2SCAN, Native XTB                           
  Gianluca Regni         : ADLD/ADEX                                     
  Tobias Risthaus        : pre 6.0 range-separated hybrid DFT and stability analysis
  Lukas Wittmann         : regularized MP2, r2SCAN double-hybrids, wr2SCAN        
                                                                         
We gratefully acknowledge several colleagues who have allowed us to      
interface, adapt or use parts of their codes:                            
  Ed Valeev, F. Pavosevic, A. Kumar             : LibInt (2-el integral package), F12 methods 
  Garnet Chan, S. Sharma, J. Yang, R. Olivares  : DMRG                   
  Ulf Ekstrom                                   : XCFun DFT Library      
  Mihaly Kallay                                 : mrcc  (arbitrary order and MRCC methods)
  Frank Weinhold                                : gennbo (NPA and NBO analysis)           
  Simon Mueller                                 : openCOSMO-RS                            
  Christopher J. Cramer and Donald G. Truhlar   : smd solvation model                     
  S Lehtola, MJT Oliveira, MAL Marques          : LibXC Library                           
  Liviu Ungur et al                             : ANISO software                          


 Your calculation uses the libint2 library for the computation of 2-el integrals
 For citations please refer to: http://libint.valeyev.net

 Your ORCA version has been built with support for libXC version: 7.0.0
 For citations please refer to: https://libxc.gitlab.io

 This ORCA versions uses:
   CBLAS   interface :  Fast vector & matrix operations
   LAPACKE interface :  Fast linear algebra routines
   SCALAPACK package :  Parallel linear algebra routines
   Shared memory     :  Shared parallel matrices
   BLAS/LAPACK       :  OpenBLAS 0.3.29  USE64BITINT DYNAMIC_ARCH NO_AFFINITY Haswell SINGLE_THREADED
        Core in use  :  Haswell
   Copyright (c) 2011-2014, The OpenBLAS Project


  ***********************************
  * Starting time: Thu Aug 14 12:13:34 2025
  * Host name:     CHEMLAB02
  * Process ID:    1769874
  * Working dir.:  /home/vivek/mm-project/vivek/MP2/d/0
  ***********************************



***************************************
The coordinates will be read from file: /home/vivek/mm-project/vivek/xtb-goat/d/D_CONF/0.xyz
***************************************


================================================================================

----- Orbital basis set information -----
Your calculation utilizes the basis: 6-31G**
   H-He, Li-Ne : W. J. Hehre, R. Ditchfield and J.A. Pople, J. Chem. Phys. 56, 2257 (1972).
                 Note: He and Ne are unpublished basis sets taken from the Gaussian program.
                 Note: Li and B from J. D. Dill and J. A. Pople, J. Chem. Phys. 62, 2921 (1975).
   Na - Ar     : M. M. Francl, W. J. Pietro, W. J. Hehre, J. S. Binkley, M. S. Gordon, 
                 D. J. DeFrees and J. A. Pople, J. Chem. Phys. 77, 3654 (1982).
   K - Zn      : V. A. Rassolov, J. A. Pople, M. A. Ratner, and T. L. Windus, J. Chem. Phys. 109, 1223 (1998).

================================================================================
                                        WARNINGS
                       Please study these warnings very carefully!
================================================================================


WARNING: No MP2 level density has been requested!
         To calculate MP2 level properties use
         %mp2 Density relaxed end
         or
         %mp2 Density unrelaxed end

WARNING: Post HF methods need fully converged wavefunctions
  ===> : Setting SCFConvForced true
         You can overwrite this default with %scf ConvForced false 


================================================================================
                                       INPUT FILE
================================================================================
NAME = 0.inp
|  1> ! MP2 6-31G** 
|  2> 
|  3> * xyzfile 0 1 /home/vivek/mm-project/vivek/xtb-goat/d/D_CONF/0.xyz
|  4> 
|  5>                          ****END OF INPUT****
================================================================================

                       ****************************
                       * Single Point Calculation *
                       ****************************

---------------------------------
CARTESIAN COORDINATES (ANGSTROEM)
---------------------------------
  C     -4.353168    1.452192    1.284957
  C     -3.954221    1.290224   -0.159492
  O     -1.992888    4.237750    0.416962
  H     -4.165591    4.968691    0.015917
  O     -5.345331    0.624276    1.622145
  C     -2.706535    2.114914   -0.485073
  H     -3.757989    0.235605   -0.354569
  H     -4.796632    1.605693   -0.776338
  C     -2.878270    3.571025   -0.043026
  O     -3.863276    2.228750    2.060570
  N     -1.530413    1.500630    0.098642
  O     -4.103420    4.049024   -0.288119
  H     -0.716749    2.074192   -0.101889
  H     -5.593640    0.749114    2.552052
  H     -2.570962    2.131735   -1.575308
  H     -1.630725    1.490509    1.110028

----------------------------
CARTESIAN COORDINATES (A.U.)
----------------------------
  NO LB      ZA    FRAG     MASS         X           Y           Z
   0 C     6.0000    0    12.011   -8.226295    2.744246    2.428217
   1 C     6.0000    0    12.011   -7.472396    2.438170   -0.301395
   2 O     8.0000    0    15.999   -3.766013    8.008187    0.787944
   3 H     1.0000    0     1.008   -7.871825    9.389465    0.030079
   4 O     8.0000    0    15.999  -10.101211    1.179710    3.065409
   5 C     6.0000    0    12.011   -5.114610    3.996609   -0.916654
   6 H     1.0000    0     1.008   -7.101570    0.445229   -0.670039
   7 H     1.0000    0     1.008   -9.064321    3.034319   -1.467066
   8 C     6.0000    0    12.011   -5.439141    6.748258   -0.081307
   9 O     8.0000    0    15.999   -7.300534    4.211726    3.893912
  10 N     7.0000    0    14.007   -2.892062    2.835780    0.186406
  11 O     8.0000    0    15.999   -7.754339    7.651546   -0.544466
  12 H     1.0000    0     1.008   -1.354459    3.919655   -0.192543
  13 H     1.0000    0     1.008  -10.570448    1.415621    4.822679
  14 H     1.0000    0     1.008   -4.858414    4.028396   -2.976901
  15 H     1.0000    0     1.008   -3.081624    2.816654    2.097649

--------------------------------
INTERNAL COORDINATES (ANGSTROEM)
--------------------------------
 C      0   0   0     0.000000000000     0.00000000     0.00000000
 C      1   0   0     1.507257161969     0.00000000     0.00000000
 O      2   1   0     3.587065222158    84.39996929     0.00000000
 H      3   2   1     2.327175975157    73.73446192   278.61110867
 O      1   2   3     1.335488078579   111.83796061   170.57766145
 C      2   1   3     1.530633528681   111.20485321    16.51928844
 H      2   1   3     1.090313475675   108.84695627   137.42906583
 H      2   1   3     1.090722471437   107.84639472   254.97324988
 C      3   2   1     1.200005009718    22.84379760   248.46307830
 O      1   2   3     1.201919143900   125.44825857   351.04793975
 N      6   2   1     1.449596443278   110.32780687    73.29721657
 O      4   3   2     0.970613563965    72.33667462   343.90897729
 H     11   6   2     1.015497606299   109.34321957   181.73046111
 H      5   1   2     0.970551400497   110.62444076   180.54176561
 H      6   2   1     1.098761577060   108.65602612   191.29366088
 H     11   6   2     1.016399200436   108.95545402   297.55893412

---------------------------
INTERNAL COORDINATES (A.U.)
---------------------------
 C      0   0   0     0.000000000000     0.00000000     0.00000000
 C      1   0   0     2.848303249512     0.00000000     0.00000000
 O      2   1   0     6.778570894392    84.39996929     0.00000000
 H      3   2   1     4.397725258487    73.73446192   278.61110867
 O      1   2   3     2.523706723631   111.83796061   170.57766145
 C      2   1   3     2.892478180604   111.20485321    16.51928844
 H      2   1   3     2.060393869149   108.84695627   137.42906583
 H      2   1   3     2.061166759129   107.84639472   254.97324988
 C      3   2   1     2.267680827700    22.84379760   248.46307830
 O      1   2   3     2.271298017088   125.44825857   351.04793975
 N      6   2   1     2.739340282501   110.32780687    73.29721657
 O      4   3   2     1.834193817764    72.33667462   343.90897729
 H     11   6   2     1.919012365558   109.34321957   181.73046111
 H      5   1   2     1.834076345833   110.62444076   180.54176561
 H      6   2   1     2.076358467119   108.65602612   191.29366088
 H     11   6   2     1.920716131561   108.95545402   297.55893412

---------------------
BASIS SET INFORMATION
---------------------
There are 4 groups of distinct atoms

 Group   1 Type C   : 10s4p1d contracted to 3s2p1d pattern {631/31/1}
 Group   2 Type O   : 10s4p1d contracted to 3s2p1d pattern {631/31/1}
 Group   3 Type H   : 4s1p contracted to 2s1p pattern {31/1}
 Group   4 Type N   : 10s4p1d contracted to 3s2p1d pattern {631/31/1}

Atom   0C    basis set group =>   1
Atom   1C    basis set group =>   1
Atom   2O    basis set group =>   2
Atom   3H    basis set group =>   3
Atom   4O    basis set group =>   2
Atom   5C    basis set group =>   1
Atom   6H    basis set group =>   3
Atom   7H    basis set group =>   3
Atom   8C    basis set group =>   1
Atom   9O    basis set group =>   2
Atom  10N    basis set group =>   4
Atom  11O    basis set group =>   2
Atom  12H    basis set group =>   3
Atom  13H    basis set group =>   3
Atom  14H    basis set group =>   3
Atom  15H    basis set group =>   3
------------------------------------------------------------------------------
                             ORCA STARTUP CALCULATIONS
------------------------------------------------------------------------------
------------------------------------------------------------------------------
                   ___                                                        
                  /   \      - P O W E R E D   B Y -                         
                 /     \                                                     
                 |  |  |   _    _      __       _____    __    __             
                 |  |  |  | |  | |    /  \     |  _  \  |  |  /  |          
                  \  \/   | |  | |   /    \    | | | |  |  | /  /          
                 / \  \   | |__| |  /  /\  \   | |_| |  |  |/  /          
                |  |  |   |  __  | /  /__\  \  |    /   |      \           
                |  |  |   | |  | | |   __   |  |    \   |  |\   \          
                \     /   | |  | | |  |  |  |  | |\  \  |  | \   \       
                 \___/    |_|  |_| |__|  |__|  |_| \__\ |__|  \__/        
                                                                              
                      - O R C A' S   B I G   F R I E N D -                    
                                      &                                       
                       - I N T E G R A L  F E E D E R -                       
                                                                              
 v1 FN, 2020, v2 2021, v3 2022-2024                                           
------------------------------------------------------------------------------


----------------------
SHARK INTEGRAL PACKAGE
----------------------

Number of atoms                             ...     16
Number of basis functions                   ...    161
Number of shells                            ...     75
Maximum angular momentum                    ...      2
Integral batch strategy                     ... SHARK/LIBINT Hybrid
RI-J (if used) integral strategy            ... SPLIT-RIJ (Revised 2003 algorithm where possible)
Printlevel                                  ...      1
Contraction scheme used                     ... SEGMENTED contraction
Prescreening option                         ... SCHWARTZ
   Thresh                                   ... 1.000e-10
   Tcut                                     ... 1.000e-11
   Tpresel                                  ... 1.000e-11 
Coulomb Range Separation                    ... NOT USED
Exchange Range Separation                   ... NOT USED
Multipole approximations                    ... NOT USED
Finite Nucleus Model                        ... NOT USED
CABS basis                                  ... NOT available
Auxiliary Coulomb fitting basis             ... NOT available
Auxiliary J/K fitting basis                 ... NOT available
Auxiliary Correlation fitting basis         ... NOT available
Auxiliary 'external' fitting basis          ... NOT available

Checking pre-screening integrals            ... done (  0.0 sec) Dimension = 75
   => SHARK Basis and OBASIS are compatible. Storing Pre-screening
Shell pair information
Shell pair cut-off parameter TPreSel        ...   1.0e-11
Total number of shell pairs                 ...      2850
Shell pairs after pre-screening             ...      2617
Total number of primitive shell pairs       ...     14745
Primitive shell pairs kept                  ...      8956
          la=0 lb=0:    775 shell pairs
          la=1 lb=0:    935 shell pairs
          la=1 lb=1:    304 shell pairs
          la=2 lb=0:    346 shell pairs
          la=2 lb=1:    213 shell pairs
          la=2 lb=2:     44 shell pairs

Checking whether 4 symmetric matrices of dimension 161 fit in memory
:Max Core in MB      =   4096.00
 MB in use           =      4.85
 MB left             =   4091.15
 MB needed           =      0.40
 Data fit in memory  = YES
Calculating Nuclear repulsion               ... done (  0.0 sec) ENN=    485.167383368656 Eh

Diagonalization of the overlap matrix:
Smallest eigenvalue                        ... 2.790e-03
Time for diagonalization                   ...    0.001 sec
Threshold for overlap eigenvalues          ... 1.000e-07
Number of eigenvalues below threshold      ... 0
Time for construction of square roots      ...    0.000 sec
Total time needed                          ...    0.002 sec

-------------------
DFT GRID GENERATION
-------------------

General Integration Accuracy     IntAcc      ... 4.388
Radial Grid Type                 RadialGrid  ... OptM3 with GC (2021)
Angular Grid (max. ang.)         AngularGrid ... 4 (Lebedev-302)
Angular grid pruning method      GridPruning ... 4 (adaptive)
Weight generation scheme         WeightScheme... mBecke (2022)
Basis function cutoff            BFCut       ... 1.0000e-10
Integration weight cutoff        WCut        ... 1.0000e-14
Partially contracted basis set               ... off
Rotationally invariant grid construction     ... off
Angular grids for H and He will be reduced by one unit

Total number of grid points                  ...    76902
Total number of batches                      ...     1212
Average number of points per batch           ...       63
Average number of grid points per atom       ...     4806
Grids setup in   0.3 sec
Initializing property integral containers    ... done (  0.0 sec)

SHARK setup successfully completed in   0.3 seconds

Maximum memory used throughout the entire STARTUP-calculation: 30.1 MB
-------------------------------------------------------------------------------
                                 ORCA GUESS
                   Start orbitals & Density for SCF / CASSCF
-------------------------------------------------------------------------------

------------
SCF SETTINGS
------------
Hamiltonian:
 Ab initio Hamiltonian  Method          .... Hartree-Fock(GTOs)


General Settings:
 Integral files         IntName         .... 0
 Hartree-Fock type      HFTyp           .... RHF
 Total Charge           Charge          ....    0
 Multiplicity           Mult            ....    1
 Number of Electrons    NEL             ....   70
 Basis Dimension        Dim             ....  161
 Nuclear Repulsion      ENuc            ....    485.1673833687 Eh

Convergence Acceleration:
 AO-DIIS                CNVDIIS         .... on
   Start iteration      DIISMaxIt       ....    12
   Startup error        DIISStart       ....  0.200000
   # of expansion vecs  DIISMaxEq       ....     5
   Bias factor          DIISBfac        ....   1.050
   Max. coefficient     DIISMaxC        ....  10.000
 MO-DIIS                CNVKDIIS        .... off
 Trust-Rad. Augm. Hess. CNVTRAH         .... auto
   Auto Start mean grad. ratio tolernc. ....  1.125000
   Auto Start start iteration           ....    50
   Auto Start num. interpolation iter.  ....    10
   Max. Number of Micro iterations      ....    24
   Max. Number of Macro iterations      .... Maxiter - #DIIS iter
   Number of Davidson start vectors     ....     2
   Converg. threshold    (grad. norm)   ....   5.000e-05
   Grad. Scal. Fac. for Micro threshold ....   0.100
   Minimum threshold for Micro iter.    ....   1.000e-02
   NR start threshold (gradient norm)   ....   1.000e-04
   Initial trust radius                 ....   0.400
   Minimum AH scaling param. (alpha)    ....   1.000
   Maximum AH scaling param. (alpha)    .... 1000.000
   Quad. conv. algorithm                .... NR
   White noise on init. David. guess    .... on
   Maximum white noise                  ....   0.010
   Pseudo random numbers                .... off
   Inactive MOs                         .... canonical
   Orbital update algorithm             .... Taylor
   Preconditioner                       .... Diag
   Full preconditioner red. dimension   ....   250
 SOSCF                 CNVSOSCF           .... on
   Start iteration     SOSCFMaxIt         ....   150
   Startup grad/error  SOSCFStart         ....  0.003300
   Hessian update      SOSCFHessUp        .... L-BFGS
   Autom. constraints  SOSCFAutoConstrain .... off
 Level Shifting         CNVShift        .... on
   Level shift para.    LevelShift      ....    0.2500
   Turn off err/grad.   ShiftErr        ....    0.0010
 Zerner damping         CNVZerner       .... off
 Static damping         CNVDamp         .... on
   Fraction old density DampFac         ....    0.7000
   Max. Damping (<1)    DampMax         ....    0.9800
   Min. Damping (>=0)   DampMin         ....    0.0000
   Turn off err/grad.   DampErr         ....    0.1000

SCF Procedure:
 Maximum # iterations   MaxIter         ....   125
 SCF integral mode      SCFMode         .... Direct
   Integral package                     .... SHARK and LIBINT hybrid scheme
 Reset frequency        DirectResetFreq ....    20
 Integral Threshold     Thresh          ....  1.000e-10 Eh
 Primitive CutOff       TCut            ....  1.000e-11 Eh

Convergence Tolerance:
 Convergence Check Mode ConvCheckMode   .... Total+1el-Energy
 Convergence forced     ConvForced      .... 1
 Energy Change          TolE            ....  1.000e-06 Eh
 1-El. energy change                    ....  1.000e-03 Eh
 Orbital Gradient       TolG            ....  5.000e-05
 Orbital Rotation angle TolX            ....  5.000e-05
 DIIS Error             TolErr          ....  1.000e-06

------------------------------
INITIAL GUESS: MODEL POTENTIAL
------------------------------
Loading Hartree-Fock densities                     ... done
Calculating cut-offs                               ... done
Initializing the effective Hamiltonian             ... done
Setting up the integral package (SHARK)            ... done
Starting the Coulomb interaction                   ... done (   0.0 sec)
Making the grid                                    ... done (   0.1 sec)
Mapping shells                                     ... done
Starting the XC term evaluation                    ... done (   0.0 sec)
Transforming the Hamiltonian                       ... done (   0.0 sec)
Diagonalizing the Hamiltonian                      ... done (   0.0 sec)
Back transforming the eigenvectors                 ... done (   0.0 sec)
Now organizing SCF variables                       ... done
                      ------------------
                      INITIAL GUESS DONE (   0.2 sec)
                      ------------------
             **** ENERGY FILE WAS UPDATED (0.en.tmp) ****
Finished Guess after   0.2 sec
Maximum memory used throughout the entire GUESS-calculation: 9.6 MB

-------------------------------------------------------------------------------------------
                                      ORCA LEAN-SCF
                              memory conserving SCF solver
-------------------------------------------------------------------------------------------

----------------------------------------D-I-I-S--------------------------------------------
Iteration    Energy (Eh)           Delta-E    RMSDP     MaxDP     DIISErr   Damp  Time(sec)
-------------------------------------------------------------------------------------------
               ***  Starting incremental Fock matrix formation  ***
    1    -509.1287129591014491     0.00e+00  2.75e-03  6.52e-02  2.52e-01  0.700   1.2
    2    -509.2649347804242552    -1.36e-01  2.00e-03  4.65e-02  1.53e-01  0.700   1.1
                               ***Turning on AO-DIIS***
    3    -509.3431954193849833    -7.83e-02  1.07e-03  2.04e-02  8.62e-02  0.700   1.1
    4    -509.3925350418768403    -4.93e-02  2.47e-03  4.56e-02  6.09e-02  0.000   1.1
    5    -509.5031492443470142    -1.11e-01  3.33e-04  6.45e-03  6.17e-03  0.000   1.1
                              *** Initializing SOSCF ***
---------------------------------------S-O-S-C-F--------------------------------------
Iteration    Energy (Eh)           Delta-E    RMSDP     MaxDP     MaxGrad    Time(sec)
--------------------------------------------------------------------------------------
    6    -509.5037375883507593    -5.88e-04  1.62e-04  2.22e-03  3.11e-03     1.1
               *** Restarting incremental Fock matrix formation ***
    7    -509.5038758090547617    -1.38e-04  1.02e-04  2.41e-03  1.56e-03     1.2
    8    -509.5039211954630218    -4.54e-05  1.22e-04  1.86e-03  4.68e-04     1.0
    9    -509.5039369130071236    -1.57e-05  2.30e-05  3.37e-04  2.63e-04     1.0
   10    -509.5039386469339888    -1.73e-06  6.16e-06  7.85e-05  5.56e-05     0.9
   11    -509.5039387762224123    -1.29e-07  3.34e-06  5.99e-05  1.92e-05     0.8
                 **** Energy Check signals convergence ****

               *****************************************************
               *                     SUCCESS                       *
               *           SCF CONVERGED AFTER  11 CYCLES          *
               *****************************************************

             **** ENERGY FILE WAS UPDATED (0.en.tmp) ****

----------------
TOTAL SCF ENERGY
----------------

Total Energy       :       -509.50393880040713 Eh          -13864.30702 eV

Components:
Nuclear Repulsion  :        485.16738336865603 Eh           13202.07568 eV
Electronic Energy  :       -994.67132216906316 Eh          -27066.38270 eV
One Electron Energy:      -1662.11222150732465 Eh          -45228.37291 eV
Two Electron Energy:        667.44089933826149 Eh           18161.99021 eV

Virial components:
Potential Energy   :      -1018.24407617938675 Eh          -27707.82995 eV
Kinetic Energy     :        508.74013737897963 Eh           13843.52293 eV
Virial Ratio       :          2.00150135868061

---------------
SCF CONVERGENCE
---------------

  Last Energy change         ...    1.2929e-07  Tolerance :   1.0000e-06
  Last MAX-Density change    ...    5.9900e-05  Tolerance :   1.0000e-05
  Last RMS-Density change    ...    3.3427e-06  Tolerance :   1.0000e-06
  Last DIIS Error            ...    3.1123e-03  Tolerance :   1.0000e-06
  Last Orbital Gradient      ...    1.9209e-05  Tolerance :   5.0000e-05
  Last Orbital Rotation      ...    4.7957e-05  Tolerance :   5.0000e-05


----------------
ORBITAL ENERGIES
----------------

  NO   OCC          E(Eh)            E(eV) 
   0   2.0000     -20.625903      -561.2594 
   1   2.0000     -20.615782      -560.9839 
   2   2.0000     -20.566632      -559.6465 
   3   2.0000     -20.546907      -559.1098 
   4   2.0000     -15.547443      -423.0674 
   5   2.0000     -11.400572      -310.2253 
   6   2.0000     -11.381634      -309.7100 
   7   2.0000     -11.284778      -307.0744 
   8   2.0000     -11.256892      -306.3156 
   9   2.0000      -1.481053       -40.3015 
  10   2.0000      -1.465607       -39.8812 
  11   2.0000      -1.375718       -37.4352 
  12   2.0000      -1.359260       -36.9874 
  13   2.0000      -1.201326       -32.6897 
  14   2.0000      -1.056262       -28.7424 
  15   2.0000      -0.943554       -25.6754 
  16   2.0000      -0.844214       -22.9722 
  17   2.0000      -0.798095       -21.7173 
  18   2.0000      -0.722664       -19.6647 
  19   2.0000      -0.711894       -19.3716 
  20   2.0000      -0.704445       -19.1689 
  21   2.0000      -0.682936       -18.5836 
  22   2.0000      -0.663639       -18.0585 
  23   2.0000      -0.654051       -17.7976 
  24   2.0000      -0.620080       -16.8732 
  25   2.0000      -0.601469       -16.3668 
  26   2.0000      -0.588668       -16.0185 
  27   2.0000      -0.565544       -15.3892 
  28   2.0000      -0.542120       -14.7518 
  29   2.0000      -0.526442       -14.3252 
  30   2.0000      -0.491978       -13.3874 
  31   2.0000      -0.479089       -13.0367 
  32   2.0000      -0.456715       -12.4278 
  33   2.0000      -0.447972       -12.1899 
  34   2.0000      -0.403873       -10.9899 
  35   0.0000       0.175213         4.7678 
  36   0.0000       0.193635         5.2691 
  37   0.0000       0.219912         5.9841 
  38   0.0000       0.221923         6.0388 
  39   0.0000       0.246417         6.7054 
  40   0.0000       0.274803         7.4778 
  41   0.0000       0.291737         7.9386 
  42   0.0000       0.320723         8.7273 
  43   0.0000       0.333797         9.0831 
  44   0.0000       0.389208        10.5909 
  45   0.0000       0.404841        11.0163 
*Only the first 10 virtual orbitals were printed.

                    ********************************
                    * MULLIKEN POPULATION ANALYSIS *
                    ********************************

-----------------------
MULLIKEN ATOMIC CHARGES
-----------------------
   0 C :    0.810259
   1 C :   -0.315268
   2 O :   -0.588131
   3 H :    0.375114
   4 O :   -0.637810
   5 C :   -0.052012
   6 H :    0.189961
   7 H :    0.186825
   8 C :    0.831868
   9 O :   -0.586252
  10 N :   -0.685881
  11 O :   -0.650260
  12 H :    0.290345
  13 H :    0.374388
  14 H :    0.168286
  15 H :    0.288567
Sum of atomic charges:   -0.0000000

--------------------------------
MULLIKEN REDUCED ORBITAL CHARGES
--------------------------------
  0 C s       :     2.938684  s :     2.938684
      pz      :     0.851046  p :     2.102131
      px      :     0.627783
      py      :     0.623302
      dz2     :     0.040088  d :     0.148925
      dxz     :     0.024365
      dyz     :     0.025826
      dx2y2   :     0.029264
      dxy     :     0.029382

  1 C s       :     3.261180  s :     3.261180
      pz      :     0.924644  p :     3.008842
      px      :     0.999761
      py      :     1.084437
      dz2     :     0.013695  d :     0.045246
      dxz     :     0.009647
      dyz     :     0.002987
      dx2y2   :     0.010260
      dxy     :     0.008657

  2 O s       :     3.875564  s :     3.875564
      pz      :     1.458204  p :     4.679465
      px      :     1.559652
      py      :     1.661609
      dz2     :     0.006121  d :     0.033101
      dxz     :     0.007585
      dyz     :     0.004507
      dx2y2   :     0.006155
      dxy     :     0.008733

  3 H s       :     0.583325  s :     0.583325
      pz      :     0.010342  p :     0.041561
      px      :     0.006341
      py      :     0.024877

  4 O s       :     3.840985  s :     3.840985
      pz      :     1.466664  p :     4.771143
      px      :     1.593640
      py      :     1.710839
      dz2     :     0.009171  d :     0.025681
      dxz     :     0.001634
      dyz     :     0.002743
      dx2y2   :     0.004691
      dxy     :     0.007443

  5 C s       :     3.214009  s :     3.214009
      pz      :     1.070546  p :     2.767647
      px      :     0.848101
      py      :     0.849000
      dz2     :     0.018319  d :     0.070356
      dxz     :     0.010230
      dyz     :     0.006198
      dx2y2   :     0.018483
      dxy     :     0.017127

  6 H s       :     0.797160  s :     0.797160
      pz      :     0.001961  p :     0.012879
      px      :     0.001934
      py      :     0.008985

  7 H s       :     0.800135  s :     0.800135
      pz      :     0.004329  p :     0.013040
      px      :     0.006206
      py      :     0.002505

  8 C s       :     2.928075  s :     2.928075
      pz      :     0.636511  p :     2.093326
      px      :     0.619556
      py      :     0.837259
      dz2     :     0.015809  d :     0.146731
      dxz     :     0.027066
      dyz     :     0.015632
      dx2y2   :     0.052360
      dxy     :     0.035864

  9 O s       :     3.879827  s :     3.879827
      pz      :     1.611050  p :     4.673441
      px      :     1.598974
      py      :     1.463418
      dz2     :     0.005893  d :     0.032984
      dxz     :     0.007033
      dyz     :     0.007976
      dx2y2   :     0.007472
      dxy     :     0.004611

 10 N s       :     3.603223  s :     3.603223
      pz      :     1.253180  p :     4.048042
      px      :     1.119968
      py      :     1.674894
      dz2     :     0.013863  d :     0.034617
      dxz     :     0.003285
      dyz     :     0.002055
      dx2y2   :     0.002105
      dxy     :     0.013309

 11 O s       :     3.839147  s :     3.839147
      pz      :     1.816448  p :     4.785994
      px      :     1.529194
      py      :     1.440353
      dz2     :     0.002981  d :     0.025119
      dxz     :     0.004895
      dyz     :     0.002835
      dx2y2   :     0.011189
      dxy     :     0.003220

 12 H s       :     0.683534  s :     0.683534
      pz      :     0.004786  p :     0.026120
      px      :     0.011936
      py      :     0.009399

 13 H s       :     0.583997  s :     0.583997
      pz      :     0.025288  p :     0.041615
      px      :     0.008676
      py      :     0.007651

 14 H s       :     0.819440  s :     0.819440
      pz      :     0.009222  p :     0.012274
      px      :     0.001347
      py      :     0.001705

 15 H s       :     0.685273  s :     0.685273
      pz      :     0.015877  p :     0.026159
      px      :     0.003624
      py      :     0.006658



                     *******************************
                     * LOEWDIN POPULATION ANALYSIS *
                     *******************************

----------------------
LOEWDIN ATOMIC CHARGES
----------------------
   0 C :    0.248367
   1 C :   -0.132754
   2 O :   -0.304153
   3 H :    0.203105
   4 O :   -0.202350
   5 C :   -0.018697
   6 H :    0.102431
   7 H :    0.102173
   8 C :    0.231373
   9 O :   -0.303659
  10 N :   -0.278412
  11 O :   -0.213835
  12 H :    0.138734
  13 H :    0.203184
  14 H :    0.088832
  15 H :    0.135660

-------------------------------
LOEWDIN REDUCED ORBITAL CHARGES
-------------------------------
  0 C s       :     2.836382  s :     2.836382
      pz      :     1.002697  p :     2.593765
      px      :     0.785491
      py      :     0.805577
      dz2     :     0.087139  d :     0.321486
      dxz     :     0.049570
      dyz     :     0.055526
      dx2y2   :     0.059101
      dxy     :     0.070151

  1 C s       :     2.896115  s :     2.896115
      pz      :     1.019025  p :     3.150829
      px      :     1.049650
      py      :     1.082154
      dz2     :     0.027510  d :     0.085810
      dxz     :     0.018628
      dyz     :     0.006198
      dx2y2   :     0.017348
      dxy     :     0.016126

  2 O s       :     3.544985  s :     3.544985
      pz      :     1.450351  p :     4.701615
      px      :     1.586202
      py      :     1.665061
      dz2     :     0.007822  d :     0.057553
      dxz     :     0.012299
      dyz     :     0.007776
      dx2y2   :     0.011454
      dxy     :     0.018202

  3 H s       :     0.676320  s :     0.676320
      pz      :     0.031579  p :     0.120574
      px      :     0.020234
      py      :     0.068762

  4 O s       :     3.456566  s :     3.456566
      pz      :     1.435212  p :     4.697899
      px      :     1.576562
      py      :     1.686125
      dz2     :     0.015838  d :     0.047885
      dxz     :     0.006884
      dyz     :     0.004919
      dx2y2   :     0.006622
      dxy     :     0.013623

  5 C s       :     2.868226  s :     2.868226
      pz      :     1.054781  p :     3.010471
      px      :     0.969742
      py      :     0.985948
      dz2     :     0.033670  d :     0.139999
      dxz     :     0.019875
      dyz     :     0.012220
      dx2y2   :     0.038284
      dxy     :     0.035951

  6 H s       :     0.855351  s :     0.855351
      pz      :     0.007401  p :     0.042218
      px      :     0.007239
      py      :     0.027579

  7 H s       :     0.855615  s :     0.855615
      pz      :     0.013872  p :     0.042212
      px      :     0.019545
      py      :     0.008794

  8 C s       :     2.846794  s :     2.846794
      pz      :     0.720717  p :     2.602962
      px      :     0.894412
      py      :     0.987833
      dz2     :     0.031888  d :     0.318872
      dxz     :     0.058968
      dyz     :     0.031796
      dx2y2   :     0.119344
      dxy     :     0.076876

  9 O s       :     3.546162  s :     3.546162
      pz      :     1.631481  p :     4.699946
      px      :     1.582695
      py      :     1.485770
      dz2     :     0.010143  d :     0.057550
      dxz     :     0.010923
      dyz     :     0.017594
      dx2y2   :     0.009042
      dxy     :     0.009847

 10 N s       :     3.188031  s :     3.188031
      pz      :     1.243630  p :     4.029651
      px      :     1.149403
      py      :     1.636618
      dz2     :     0.022591  d :     0.060730
      dxz     :     0.008435
      dyz     :     0.003054
      dx2y2   :     0.005807
      dxy     :     0.020843

 11 O s       :     3.456723  s :     3.456723
      pz      :     1.767155  p :     4.709491
      px      :     1.534464
      py      :     1.407871
      dz2     :     0.005596  d :     0.047621
      dxz     :     0.007096
      dyz     :     0.004259
      dx2y2   :     0.020128
      dxy     :     0.010543

 12 H s       :     0.779203  s :     0.779203
      pz      :     0.014740  p :     0.082063
      px      :     0.036006
      py      :     0.031318

 13 H s       :     0.676499  s :     0.676499
      pz      :     0.069993  p :     0.120316
      px      :     0.025913
      py      :     0.024411

 14 H s       :     0.871951  s :     0.871951
      pz      :     0.027210  p :     0.039217
      px      :     0.005864
      py      :     0.006143

 15 H s       :     0.781892  s :     0.781892
      pz      :     0.048555  p :     0.082448
      px      :     0.011580
      py      :     0.022313



                      *****************************
                      * MAYER POPULATION ANALYSIS *
                      *****************************

  NA   - Mulliken gross atomic population
  ZA   - Total nuclear charge
  QA   - Mulliken gross atomic charge
  VA   - Mayer's total valence
  BVA  - Mayer's bonded valence
  FA   - Mayer's free valence

  ATOM       NA         ZA         QA         VA         BVA        FA
  0 C      5.1897     6.0000     0.8103     3.7178     3.7178     0.0000
  1 C      6.3153     6.0000    -0.3153     3.7278     3.7278    -0.0000
  2 O      8.5881     8.0000    -0.5881     1.9075     1.9075     0.0000
  3 H      0.6249     1.0000     0.3751     0.8706     0.8706    -0.0000
  4 O      8.6378     8.0000    -0.6378     1.8384     1.8384     0.0000
  5 C      6.0520     6.0000    -0.0520     3.7759     3.7759    -0.0000
  6 H      0.8100     1.0000     0.1900     0.9413     0.9413    -0.0000
  7 H      0.8132     1.0000     0.1868     0.9416     0.9416    -0.0000
  8 C      5.1681     6.0000     0.8319     3.6823     3.6823    -0.0000
  9 O      8.5863     8.0000    -0.5863     1.8825     1.8825    -0.0000
 10 N      7.6859     7.0000    -0.6859     2.7633     2.7633     0.0000
 11 O      8.6503     8.0000    -0.6503     1.8011     1.8011    -0.0000
 12 H      0.7097     1.0000     0.2903     0.9033     0.9033    -0.0000
 13 H      0.6256     1.0000     0.3744     0.8698     0.8698    -0.0000
 14 H      0.8317     1.0000     0.1683     0.9386     0.9386    -0.0000
 15 H      0.7114     1.0000     0.2886     0.9065     0.9065     0.0000

  Mayer bond orders larger than 0.100000
B(  0-C ,  1-C ) :   0.9518 B(  0-C ,  4-O ) :   0.9868 B(  0-C ,  9-O ) :   1.7917 
B(  1-C ,  5-C ) :   0.9478 B(  1-C ,  6-H ) :   0.9479 B(  1-C ,  7-H ) :   0.9466 
B(  2-O ,  8-C ) :   1.8361 B(  3-H , 11-O ) :   0.8392 B(  4-O , 13-H ) :   0.8388 
B(  5-C ,  8-C ) :   0.9162 B(  5-C , 10-N ) :   0.9995 B(  5-C , 14-H ) :   0.9582 
B(  8-C , 11-O ) :   0.9446 B( 10-N , 12-H ) :   0.8995 B( 10-N , 15-H ) :   0.8944 


-------
TIMINGS
-------

Total SCF time: 0 days 0 hours 0 min 12 sec 

Total time                  ....      12.413 sec
Sum of individual times     ....      11.626 sec  ( 93.7%)

SCF preparation             ....       0.014 sec  (  0.1%)
Fock matrix formation       ....      11.572 sec  ( 93.2%)
  Startup                   ....       0.000 sec  (  0.0% of F)
  Coulomb+Exchange Fock     ....      12.346 sec  (106.7% of F)
Diagonalization             ....       0.000 sec  (  0.0%)
Density matrix formation    ....       0.003 sec  (  0.0%)
Total Energy calculation    ....       0.001 sec  (  0.0%)
Population analysis         ....       0.007 sec  (  0.1%)
Orbital Transformation      ....       0.004 sec  (  0.0%)
Orbital Orthonormalization  ....       0.000 sec  (  0.0%)
DIIS solution               ....       0.017 sec  (  0.1%)
SOSCF solution              ....       0.008 sec  (  0.1%)
Finished LeanSCF after  12.4 sec

Maximum memory used throughout the entire LEANSCF-calculation: 13.2 MB

------------------------------------------------------------------------------
                                ORCA  MP2 
------------------------------------------------------------------------------

Freezing NCore=18 chemical core electrons

----------
MP2 ENERGY (disk based algorithm)
----------

Dimension of the basis                      ...  161
Memory devoted to MP2                       ... 4096 MB   
Data format for buffers                     ... DOUBLE
Compression type for matrix containers      ... UNCOMPRESSED

-------------------------
SHARK HALF TRANSFORMATION (Exchange order)
-------------------------

Number of basis functions                   ...    161
Number of operators                         ...      1
   Operator  0:    9-  34 (p-index in (p*|q*))
   Operator  0:    9-  34 (q-index in (p*|q*)
Integral generator used                     ... SHARK
Contraction scheme used                     ... SEGMENTED CONTRACTION
MaxCore in resort                           ...   4096 MB

Half transformed integrals for op=   0      ... 0.SHARK_MNPQ0.tmp
Resorted half transformed integrals         ... 0.KAO_aa.tmp

Half trafo (segmented) done. Total time =  6.9 sec. integrals=  6.4 sec trafo=  0.5 sec

----------------------
SHARK INTEGRAL SORTING (Exchange)
----------------------

Input container                             ... 0.SHARK_MNPQ0.tmp
Output container                            ... 0.KAO_aa.tmp
Range of AO-indices                         ...    0 -  160
Range of bra indices i                      ...    9 -   34
Range of ket indices j                      ...    9 -   34
Symmetric i,j range                         ... YES
Number of (i,j) pairs generated             ...  351
Max Core memory in MB                       ...   4096

Available core memory in MB                 ...   4088.24
MB needed for one item                      ...      0.20
Fixed MB needed                             ...      0.00
Number of items                             ...       351
Number of batches                           ...         1
Items treated per batch                     ...       351
Batch   0                                   ...      0-   350 (   351)
   => Closing output file and leaving
done (  0.1 sec)

SHARK half integral transformation done. Total time =  7.0 sec.


Finished integral transformation - now doing MP2 part

OPERATOR COMBINATION   0   0: ij=(  9.. 34,  9.. 34)
  Internal MO  11
  Internal MO  14
  Internal MO  17
  Internal MO  20
  Internal MO  23
  Internal MO  26
  Internal MO  29
  Internal MO  32
-----------------------------------------------
 MP2 CORRELATION ENERGY   :     -1.401439653 Eh
-----------------------------------------------


-------
TIMINGS
-------
Total time                :    7.088 sec
Integral trafo            :    7.004 sec ( 98.8%)
K(i,j)                    :    0.066 sec (  0.9%)
T(i,j)                    :    0.002 sec (  0.0%)

---------------------------------------
MP2 TOTAL ENERGY:     -510.905378454 Eh
---------------------------------------

Maximum memory used throughout the entire MP2-calculation: 78.0 MB

-------------------------   --------------------
FINAL SINGLE POINT ENERGY      -510.905378453793
-------------------------   --------------------


------------------------------------------------------------------------------
                              ORCA PROPERTY CALCULATIONS
------------------------------------------------------------------------------

GBWName                                 ... 0.gbw
Number of atoms                         ...     16
Number of basis functions               ...    161
Max core memory                         ...   4096 MB

Electric properties:
Dipole moment                           ... YES
Quadrupole moment                       ...  NO
Static polarizability (Dipole/Dipole)   ...  NO
Static polarizability (Dipole/Quad.)    ...  NO
Static polarizability (Quad./Quad.)     ...  NO
Static polarizability (Velocity)        ...  NO
Static hyperpolarizability              ...  NO

Atomic electric properties:
Dipole moment                           ...  NO
Quadrupole moment                       ...  NO
Static polarizability                   ...  NO

Choice of electric origin               ... Center of mass
Position of electric origin             ...    -6.482241     4.455728     0.999710

General magnetic properties:
Magnetizability                         ...  NO

EPR properties:
g-Tensor (aka g-matrix)                 ...  NO
Zero-Field splitting spin-orbit         ...  NO
Zero-field splitting spin-spin          ...  NO
Hyperfine couplings                     ...  NO (   0 nuclei)
Quadrupole couplings                    ...  NO (   0 nuclei)
Contact density                         ...  NO (   0 nuclei)

NMR properties:
Chemical shifts                         ...  NO (   0 nuclei)
Spin-rotation constants                 ...  NO (   0 nuclei)
Spin-spin couplings                     ...  NO (   0 nuclei,    0 pairs)

Choice of magnetic origin               ... GIAO
Position of magnetic origin             ...     0.000000     0.000000     0.000000

Properties with geometric perturbations:
SCF Hessian                             ...  NO
IR spectrum                             ...  NO
VCD spectrum                            ...  NO
X-ray spectroscopy properties:
SCF XES/XAS/RIXS spectra                ...  NO

SCF SOC stabilization energy            ...  NO
Diagonal Born-Oppenheimer correction    ...  NO

-------------
DIPOLE MOMENT
-------------

Method             : SCF
Type of density    : Electron Density
Multiplicity       :   1
Irrep              :   0
Energy             :  -509.5039388004071270 Eh
Basis              : AO
                                X                 Y                 Z
Electronic contribution:     -1.725310835       2.723174826       2.316471510
Nuclear contribution   :      0.718336751      -3.028105306      -2.635404375
                        -----------------------------------------
Total Dipole Moment    :     -1.006974084      -0.304930479      -0.318932864
                        -----------------------------------------
Magnitude (a.u.)       :      1.099407829
Magnitude (Debye)      :      2.794472621



--------------------
Rotational spectrum 
--------------------
 
Rotational constants in cm-1:             0.085180             0.042640             0.037052 
Rotational constants in MHz :          2553.629518          1278.324366          1110.784161 

Dipole components along the rotational axes: 
x,y,z [a.u.] :     0.706951    -0.387881     0.747306 
x,y,z [Debye]:     1.796925    -0.985915     1.899502 

 

Dipole moment calculation done in   0.0 sec 

Maximum memory used throughout the entire PROP-calculation: 7.9 MB

--------------------------------
SUGGESTED CITATIONS FOR THIS RUN
--------------------------------

Below you find a list of papers that are relevant to this ORCA run
We neither can nor want to force you to cite these papers, but we appreciate if you do
You receive ORCA, which is the product of decades of hard work by many enthusiastic individuals, for free
The only thing we kindly ask in return is that you cite our papers,
We deeply appreciate it, if you show your appreciation for ORCA by not just citing the generic ORCA reference.

Please note that relegating all ORCA citations to the supporting information does *not* help us.
SI sections are not indexed - citations you put there will not count into any citation statistics
But we need these citations in order to attract the funding resources that allow us to do what we are doing

Therefore, if you are a happy ORCA user, please consider citing a few of the papers listed below in the main body of your paper

In addition to the list printed below, the program has created the file 0.bibtex that contains the list in bibtex format
You can import this file easily into all common literature databanks and citation aid programs


List of essential papers. We consider these as the minimum necessary citations

  1. Neese, F.
     Software update: the ORCA program system, version 6.0
     WIRES Comput. Molec. Sci. 2025 15(1), e70019
     doi.org/10.1002/wcms.7019

List of papers to cite with high priority. The work reported in these papers was absolutely
necessary for this run to complete.
Our perspective: the developers of density functionals and basis sets usually get cited in chemistry papers
Good! But without the algorithms to do something with them, the functionals or basis sets would not do anything.
Hence, in our opinion, the algorithm design and method developments papers are equally worthy of getting cited

  1. Neese, F.
     The SHARK Integral Generation and Digestion System
     J. Comp. Chem. 2022 44(3), 381
     doi.org/10.1002/jcc.26942

List of suggested additional citations. These are papers that are important in the 'surrounding' of 
of this run, or papers that preceded the highly important papers. If you like your results we are grateful for a citation.

  1. Neese, F.
     The ORCA program system
     WIRES Comput. Molec. Sci. 2012 2(1), 73-78
     doi.org/10.1002/wcms.81
  2. Neese, F.
     Software update: the ORCA program system, version 4.0
     WIRES Comput. Molec. Sci. 2018 8(1), 1-6
     doi.org/10.1002/wcms.1327
  3. Neese, F.; Wennmohs, F.; Becker, U.; Riplinger, C.
     The ORCA quantum chemistry program package
     J. Chem. Phys. 2020 152(22), 224108
     doi.org/10.1063/5.0004608
  4. Neese, F.
     Software update: The ORCA program system—Version 5.0
     WIRES Comput. Molec. Sci. 2022 12(1), e1606
     doi.org/10.1002/wcms.1606

List of optional additional citations

  1. Neese, F.
     Approximate second-order SCF convergence for spin unrestricted wavefunctions
     Chem. Phys. Lett. 2000 325(1-3), 93-98
     doi.org/10.1016/s0009-2614(00)00662-x

Timings for individual modules:

Sum of individual times          ...       20.088 sec (=   0.335 min)
Startup calculation              ...        0.346 sec (=   0.006 min)   1.7 %
SCF iterations                   ...       12.608 sec (=   0.210 min)  62.8 %
Property calculations            ...        0.023 sec (=   0.000 min)   0.1 %
MP2 module                       ...        7.111 sec (=   0.119 min)  35.4 %
                             ****ORCA TERMINATED NORMALLY****
TOTAL RUN TIME: 0 days 0 hours 0 minutes 20 seconds 125 msec
