
                                 *****************
                                 * O   R   C   A *
                                 *****************

                                            #,                                       
                                            ###                                      
                                            ####                                     
                                            #####                                    
                                            ######                                   
                                           ########,                                 
                                     ,,################,,,,,                         
                               ,,#################################,,                 
                          ,,##########################################,,             
                       ,#########################################, ''#####,          
                    ,#############################################,,   '####,        
                  ,##################################################,,,,####,       
                ,###########''''           ''''###############################       
              ,#####''   ,,,,##########,,,,          '''####'''          '####       
            ,##' ,,,,###########################,,,                        '##       
           ' ,,###''''                  '''############,,,                           
         ,,##''                                '''############,,,,        ,,,,,,###''
      ,#''                                            '''#######################'''  
     '                                                          ''''####''''         
             ,#######,   #######,   ,#######,      ##                                
            ,#'     '#,  ##    ##  ,#'     '#,    #''#        ,####,    ,#,          
            ##       ##  ##   ,#'  ##            #'  '#       #'       ,# #          
            ##       ##  #######   ##           ,######,      #####,      #          
            '#,     ,#'  ##    ##  '#,     ,#' ,#      #,     #,   #      #          
             '#######'   ##     ##  '#######'  #'      '#     '####' #    #          



                #########################################################
                #                        -***-                          #
                #          Department of theory and spectroscopy        #
                #                                                       #
                #                      Frank Neese                      #
                #                                                       #
                #     Directorship, Architecture, Infrastructure        #
                #                    SHARK, DRIVERS                     #
                #        Core code/Algorithms in most modules           #
                #                                                       #
                #        Max Planck Institute fuer Kohlenforschung      #
                #                Kaiser Wilhelm Platz 1                 #
                #                 D-45470 Muelheim/Ruhr                 #
                #                      Germany                          #
                #                                                       #
                #                  All rights reserved                  #
                #                        -***-                          #
                #########################################################


                         Program Version 6.1.0  -  RELEASE   -
                                (GIT: $679e74b$)
                          ($2025-06-10 18:02:51 +0200$)


 With contributions from (in alphabetic order):
[Max-Planck-Institut fuer Kohlenforschung]                               
  Daniel Aravena         : Magnetic Suceptibility                        
  Michael Atanasov       : Ab Initio Ligand Field Theory (pilot matlab implementation)
  Alexander A. Auer      : GIAO ZORA, VPT2 properties, NMR spectrum      
  Ute Becker             : All parallelization in ORCA, NUMFREQ, NUMCALC 
  Giovanni Bistoni       : ED, misc. LED, open-shell LED, HFLD           
  Dmytro Bykov           : pre 5.0 version of the SCF Hessian            
  Marcos Casanova-Páez   : Triplet and SCS-CIS(D). UHF-(DLPNO)-IP/EA/STEOM-CCSD. UHF-CVS-IP/STEOM-CCSD   
  Vijay G. Chilkuri      : MRCI spin determinant printing, contributions to CSF-ICE 
  Pauline Colinet        : FMM embedding                                 
  Dipayan Datta          : RHF DLPNO-CCSD density                        
  Achintya Kumar Dutta   : EOM-CC, STEOM-CC                              
  Nicolas Foglia         : Exact transition moments, OPA infrastructure, MCD improvements    
  Dmitry Ganyushin       : Spin-Orbit,Spin-Spin,Magnetic field MRCI      
  Miquel Garcia-Rates    : C-PCM and meta-GGA Hessian, CCSD/C-PCM, Gaussian charge scheme 
  Tiago L. C. Gouveia    : GS-ROHF, GS-ROCIS                             
  Yang Guo               : DLPNO-NEVPT2, F12-NEVPT2, CIM, IAO-localization        
  Andreas Hansen         : Spin unrestricted coupled pair/coupled cluster methods 
  Ingolf Harden          : AUTO-CI MPn and infrastructure                
  Benjamin Helmich-Paris : MC-RPA, TRAH-(SCF,CASSCF), AVAS, COSX integrals, SCF dyn. polar., MC-PDFT, srDFT 
  Lee Huntington         : MR-EOM, pCC                                   
  Robert Izsak           : Overlap fitted RIJCOSX, COSX-SCS-MP3, EOM     
  Riya Kayal             : Wick's Theorem for AUTO-CI, AUTO-CI UHF-CCSDT 
  Emily Kempfer          : AUTO-CI RHF CISDT and CCSDT, approximate NEVPT4
  Christian Kollmar      : KDIIS, OOCD, Brueckner-CCSD(T), CCSD density, CASPT2, CASPT2-K, improved NEVPT2 
  Axel Koslowski         : Symmetry handling                             
  Simone Kossmann        : meta-GGA functionals, TD-DFT gradient, OOMP2, (MP2 Hessian; deprecated post 5.0) 
  Lucas Lang             : DCDCAS, Hyperfine gauge corrections, ICE-SOC+SSC
  Marvin Lechner         : AUTO-CI (C++ implementation), FIC-MRCC        
  Spencer Leger          : CASSCF response                               
  Dagmar Lenk            : GEPOL surface, SMD, ORCA-2-JSON               
  Dimitrios Liakos       : Extrapolation schemes; Compound Job, Property file
  Dimitrios Manganas     : Further ROCIS development; embedding schemes. LFT, Crystal Embedding 
  Dimitrios Pantazis     : SARC Basis sets                               
  Anastasios Papadopoulos: AUTO-CI, single reference methods and gradients 
  Taras Petrenko         : pre 6.0 DFT Hessian and TD-DFT gradient,  ECA, NRVS 
  Petra Pikulova         : Analytic Raman intensities                    
  Peter Pinski           : DLPNO-MP2, DLPNO-MP2 Gradient                 
  Shashank Vittal Rao    : ES-AILFT, MagRelax                            
  Christoph Reimann      : Effective Core Potentials                     
  Marius Retegan         : Local ZFS, SOC                                
  Christoph Riplinger    : Optimizer, TS searches, QM/MM, DLPNO-CCSD(T), (RO)-DLPNO pert. Triples 
  Michael Roemelt        : Original ROCIS implementation, recursive CI coupling coefficients
  Masaaki Saitow         : Open-shell DLPNO-CCSD energy and density      
  Barbara Sandhoefer     : DKH picture change effects                    
  Yorick L. A. Schmerwitz: GMF and freeze-and-release deltaSCF, NEB S-IDPP initial path                    
  Kantharuban Sivalingam : CASSCF convergence/infrastructure, NEVPT2, NEVPT3, NEVPT4(SD), FIC-MRCI and CEPA variants
  Bernardo de Souza      : ESD, SOC TD-DFT                               
  Georgi L. Stoychev     : AutoAux, RI-MP2 NMR, DLPNO-MP2 response, X2C  
  Van Anh Tran           : RI-MP2 g-tensors                              
  Willem Van den Heuvel  : Paramagnetic NMR                              
  Zikuan Wang            : NOTCH, Electric field optimization            
  Frank Wennmohs         : Technical directorship and infrastructure     
  Hang Xu                : AUTO-CI-Response properties                   
                                                                         
[FACCTs GmbH]                                                            
  Markus Bursch, Nicolas Foglia, Miquel Garcia-Rates, Ingolf Harden, Hagen Neugebauer, Anastasios Papadopoulos, 
  Christoph Riplinger, Bernardo de Souza, Georgi L. Stoychev                                                    
                                                                 
  APM, various basis sets, CI-OPT, improved COSX, DLPNO-Multilevel,           
  DOCKER, DRACO, updates on ESD, Fragmentator, GOAT, IRC, LR-CPCM, L-BFGS, MBIS, meta-GGA TD-DFT gradient, ML-optimized integration grids, 
  MM, NACMEs, nearIR, NEB, NEB-TS, NL-DFT gradient (VV10), 2- and 3-layer-ONIOM, interface openCOSMO-RS, QMMM,   
  Crystal-QMMM, RESP, rigid body optimization, SF, symmetry and pop. for TD-DFT, various functionals, SOLVATOR                                   
                                                                         
[Other institutions]                                                     
  V. Asgeirsson          : NEB                                           
  Christoph Bannwarth    : sTDA-DFT, sTD-DFT, PBEh-3c, B97-3c, D3        
  Giovanni Bistoni       : ETS/NOCV, ADLD/ADEX, COVALED                  
  Martin Brehm           : Molecular dynamics                            
  Ronald Cardenas        : ETS/NOCV                                      
  Martina Colucci        : COVALED                                       
  Sebastian Ehlert       : rSCAN, r2SCAN, r2SCAN-3c, D4, dhf basis sets  
  Marvin Friede          : D4 for Fr, Ra, Ac-Lr                          
  Lars Goerigk           : TD-DFT with DH, B97 family of functionals     
  Stefan Grimme          : VdW corrections, initial TS optimization, DFT functionals, gCP, sTDA/sTD-DF 
  Waldemar Hujo          : DFT-NL                                        
  H. Jonsson             : NEB                                           
  Holger Kruse           : gCP                                           
  Marcel Mueller         : wB97X-3c, vDZP basis set                      
  Hagen Neugebauer       : wr2SCAN, Native XTB                           
  Gianluca Regni         : ADLD/ADEX                                     
  Tobias Risthaus        : pre 6.0 range-separated hybrid DFT and stability analysis
  Lukas Wittmann         : regularized MP2, r2SCAN double-hybrids, wr2SCAN        
                                                                         
We gratefully acknowledge several colleagues who have allowed us to      
interface, adapt or use parts of their codes:                            
  Ed Valeev, F. Pavosevic, A. Kumar             : LibInt (2-el integral package), F12 methods 
  Garnet Chan, S. Sharma, J. Yang, R. Olivares  : DMRG                   
  Ulf Ekstrom                                   : XCFun DFT Library      
  Mihaly Kallay                                 : mrcc  (arbitrary order and MRCC methods)
  Frank Weinhold                                : gennbo (NPA and NBO analysis)           
  Simon Mueller                                 : openCOSMO-RS                            
  Christopher J. Cramer and Donald G. Truhlar   : smd solvation model                     
  S Lehtola, MJT Oliveira, MAL Marques          : LibXC Library                           
  Liviu Ungur et al                             : ANISO software                          


 Your calculation uses the libint2 library for the computation of 2-el integrals
 For citations please refer to: http://libint.valeyev.net

 Your ORCA version has been built with support for libXC version: 7.0.0
 For citations please refer to: https://libxc.gitlab.io

 This ORCA versions uses:
   CBLAS   interface :  Fast vector & matrix operations
   LAPACKE interface :  Fast linear algebra routines
   SCALAPACK package :  Parallel linear algebra routines
   Shared memory     :  Shared parallel matrices
   BLAS/LAPACK       :  OpenBLAS 0.3.29  USE64BITINT DYNAMIC_ARCH NO_AFFINITY Haswell SINGLE_THREADED
        Core in use  :  Haswell
   Copyright (c) 2011-2014, The OpenBLAS Project


  ***********************************
  * Starting time: Sun Aug 31 12:40:20 2025
  * Host name:     chemlab03
  * Process ID:    91444
  * Working dir.:  /home/vivek/mm-project/vivek/xtb-goat/MP2-opt/a/5
  ***********************************



***************************************
The coordinates will be read from file: /home/vivek/mm-project/vivek/xtb-goat/xtb-goat/a/A_CONF/5.xyz
***************************************


================================================================================

----- Orbital basis set information -----
Your calculation utilizes the basis: 6-31G**
   H-He, Li-Ne : W. J. Hehre, R. Ditchfield and J.A. Pople, J. Chem. Phys. 56, 2257 (1972).
                 Note: He and Ne are unpublished basis sets taken from the Gaussian program.
                 Note: Li and B from J. D. Dill and J. A. Pople, J. Chem. Phys. 62, 2921 (1975).
   Na - Ar     : M. M. Francl, W. J. Pietro, W. J. Hehre, J. S. Binkley, M. S. Gordon, 
                 D. J. DeFrees and J. A. Pople, J. Chem. Phys. 77, 3654 (1982).
   K - Zn      : V. A. Rassolov, J. A. Pople, M. A. Ratner, and T. L. Windus, J. Chem. Phys. 109, 1223 (1998).

================================================================================
                                        WARNINGS
                       Please study these warnings very carefully!
================================================================================

WARNING: Old DensityContainer found on disk!
         Will remove this file - 
         If you want to keep old densities, please start your calculation with a different basename. 


WARNING: The frozen-core approximation for MP2-gradient calculations is turned on by default.

WARNING: Geometry Optimization
  ===> : Switching off AutoStart
         For restart on a previous wavefunction, please use MOREAD

WARNING: Post HF methods need fully converged wavefunctions
  ===> : Setting SCFConvForced true
         You can overwrite this default with %scf ConvForced false 


================================================================================
                                       INPUT FILE
================================================================================
NAME = 5.inp
|  1> ! MP2 6-31G** opt
|  2> 
|  3> * xyzfile 0 1 /home/vivek/mm-project/vivek/xtb-goat/xtb-goat/a/A_CONF/5.xyz
|  4> 
|  5>                          ****END OF INPUT****
================================================================================

                       *****************************
                       * Geometry Optimization Run *
                       *****************************

Geometry optimization settings:
Update method            Update   .... BFGS
Choice of coordinates    CoordSys .... (2022) Redundant Internals
Initial Hessian          InHess   .... Almloef's Model
Max. no of cycles        MaxIter  .... 50

Convergence Tolerances:
Energy Change            TolE     ....  5.0000e-06 Eh
Max. Gradient            TolMAXG  ....  3.0000e-04 Eh/bohr
RMS Gradient             TolRMSG  ....  1.0000e-04 Eh/bohr
Max. Displacement        TolMAXD  ....  4.0000e-03 bohr
RMS Displacement         TolRMSD  ....  2.0000e-03 bohr
Strict Convergence                .... False

------------------------------------------------------------------------------
                        ORCA OPTIMIZATION COORDINATE SETUP
------------------------------------------------------------------------------

The optimization will be done in redundant internal coordinates (2022)
Making redundant internal coordinates   ...  (2022 redundants) done
Evaluating the initial hessian          ...  (Almloef) done
Evaluating the coordinates              ...  done
Calculating the B-matrix                .... done
Calculating the G-matrix                .... done
The number of degrees of freedom        ....   51

    -----------------------------------------------------------------
                    Redundant Internal Coordinates


    -----------------------------------------------------------------
         Definition                    Initial Value    Approx d2E/dq
    -----------------------------------------------------------------
      1. B(O   1,C   0)                  1.1971         1.136740   
      2. B(O   2,C   0)                  1.3291         0.699982   
      3. B(C   3,C   0)                  1.5428         0.356476   
      4. B(H   4,O   2)                  0.9830         0.477836   
      5. B(C   5,C   3)                  1.5275         0.377045   
      6. B(H   6,C   5)                  1.0860         0.365461   
      7. B(N   7,C   3)                  1.4616         0.430191   
      8. B(N   7,H   4)                  1.8898         0.017083   
      9. B(H   8,C   5)                  1.0889         0.361546   
     10. B(H   9,C   5)                  1.0882         0.362542   
     11. B(H  10,C   3)                  1.0974         0.350401   
     12. B(H  11,N   7)                  1.0129         0.428116   
     13. B(H  12,N   7)                  1.0164         0.422605   
     14. A(O   1,C   0,C   3)          123.3511         0.435337   
     15. A(O   2,C   0,C   3)          113.1844         0.399340   
     16. A(O   1,C   0,O   2)          123.4509         0.489166   
     17. A(C   0,O   2,H   4)          107.6399         0.372471   
     18. A(C   0,C   3,H  10)          105.5692         0.320402   
     19. A(C   0,C   3,N   7)          107.9167         0.366961   
     20. A(C   0,C   3,C   5)          110.5267         0.361026   
     21. A(C   5,C   3,N   7)          115.1824         0.370513   
     22. A(N   7,C   3,H  10)          107.7937         0.328472   
     23. A(C   5,C   3,H  10)          109.3841         0.323359   
     24. A(H   8,C   5,H   9)          108.9741         0.291332   
     25. A(H   6,C   5,H   9)          109.1989         0.291826   
     26. A(C   3,C   5,H   6)          109.3216         0.325602   
     27. A(C   3,C   5,H   9)          110.8588         0.325173   
     28. A(H   6,C   5,H   8)          108.2992         0.291699   
     29. A(C   3,C   5,H   8)          110.1408         0.325026   
     30. A(H  11,N   7,H  12)          107.4584         0.301600   
     31. A(C   3,N   7,H  12)          109.8415         0.335934   
     32. A(C   3,N   7,H  11)          111.2471         0.336659   
     33. D(H   4,O   2,C   0,O   1)   -178.5872         0.036692   
     34. D(H   4,O   2,C   0,C   3)      2.7201         0.036692   
     35. D(N   7,C   3,C   0,O   1)    163.8095         0.010000   
     36. D(N   7,C   3,C   0,O   2)    -17.4963         0.010000   
     37. D(C   5,C   3,C   0,O   2)   -144.2630         0.010000   
     38. D(H  10,C   3,C   0,O   1)    -81.1358         0.010000   
     39. D(C   5,C   3,C   0,O   1)     37.0427         0.010000   
     40. D(H   8,C   5,C   3,H  10)   -176.7936         0.011340   
     41. D(H   8,C   5,C   3,N   7)    -55.2322         0.011340   
     42. D(H   8,C   5,C   3,C   0)     67.3858         0.011340   
     43. D(H   6,C   5,C   3,H  10)     64.3261         0.011340   
     44. D(H   6,C   5,C   3,N   7)   -174.1126         0.011340   
     45. D(H   6,C   5,C   3,C   0)    -51.4946         0.011340   
     46. D(H  11,N   7,C   3,C   5)    -77.2369         0.016907   
     47. D(H  11,N   7,C   3,C   0)    158.7602         0.016907   
     48. D(H  12,N   7,C   3,H  10)    164.0303         0.016907   
     49. D(H  12,N   7,C   3,C   5)     41.6126         0.016907   
     50. D(H  12,N   7,C   3,C   0)    -82.3904         0.016907   
     51. D(H  11,N   7,C   3,H  10)     45.1808         0.016907   
    -----------------------------------------------------------------

Number of atoms                         .... 13
Number of degrees of freedom            .... 51


         *************************************************************
         *                GEOMETRY OPTIMIZATION CYCLE   1            *
         *************************************************************
---------------------------------
CARTESIAN COORDINATES (ANGSTROEM)
---------------------------------
  C     -4.756615    0.669171   -1.827477
  O     -4.966392    1.818114   -2.090026
  O     -3.587185    0.221083   -1.382421
  C     -5.827010   -0.435985   -1.941375
  H     -3.665923   -0.751744   -1.265421
  C     -6.724371   -0.189689   -3.152691
  H     -7.099768    0.828836   -3.120598
  N     -5.143094   -1.727602   -1.926420
  H     -6.155424   -0.315545   -4.072573
  H     -7.564857   -0.880800   -3.159157
  H     -6.425010   -0.362509   -1.024121
  H     -5.772167   -2.472904   -1.652982
  H     -4.797906   -1.945998   -2.857162

----------------------------
CARTESIAN COORDINATES (A.U.)
----------------------------
  NO LB      ZA    FRAG     MASS         X           Y           Z
   0 C     6.0000    0    12.011   -8.988699    1.264550   -3.453432
   1 O     8.0000    0    15.999   -9.385121    3.435738   -3.949577
   2 O     8.0000    0    15.999   -6.778797    0.417786   -2.612396
   3 C     6.0000    0    12.011  -11.011453   -0.823892   -3.668667
   4 H     1.0000    0     1.008   -6.927591   -1.420590   -2.391299
   5 C     6.0000    0    12.011  -12.707220   -0.358460   -5.957722
   6 H     1.0000    0     1.008  -13.416617    1.566274   -5.897075
   7 N     7.0000    0    14.007   -9.719039   -3.264695   -3.640406
   8 H     1.0000    0     1.008  -11.632066   -0.596294   -7.696047
   9 H     1.0000    0     1.008  -14.295508   -1.664471   -5.969942
  10 H     1.0000    0     1.008  -12.141509   -0.685043   -1.935308
  11 H     1.0000    0     1.008  -10.907815   -4.673111   -3.123684
  12 H     1.0000    0     1.008   -9.066729   -3.677403   -5.399254

--------------------------------
INTERNAL COORDINATES (ANGSTROEM)
--------------------------------
 C      0   0   0     0.000000000000     0.00000000     0.00000000
 O      1   0   0     1.197083627916     0.00000000     0.00000000
 O      1   2   0     1.329069050244   123.45085987     0.00000000
 C      1   2   3     1.542753687488   123.35105102   178.56137859
 H      3   1   2     0.982995466286   107.63994481   181.41280094
 C      4   1   2     1.527482968625   110.52666623    37.04273608
 H      6   4   1     1.085977340438   109.32156267   308.50542927
 N      4   1   2     1.461588111080   107.91668124   163.80949538
 H      6   4   1     1.088909204757   110.14084580    67.38575894
 H      6   4   1     1.088160146454   110.85883802   188.07341668
 H      4   1   2     1.097432069767   105.56916452   278.86416435
 H      8   4   1     1.012904464613   111.24705153   158.76016393
 H      8   4   1     1.016431105128   109.84154648   277.60964793

---------------------------
INTERNAL COORDINATES (A.U.)
---------------------------
 C      0   0   0     0.000000000000     0.00000000     0.00000000
 O      1   0   0     2.262160216162     0.00000000     0.00000000
 O      1   2   0     2.511576518032   123.45085987     0.00000000
 C      1   2   3     2.915381961450   123.35105102   178.56137859
 H      3   1   2     1.857592222167   107.63994481   181.41280094
 C      4   1   2     2.886524484930   110.52666623    37.04273608
 H      6   4   1     2.052199761072   109.32156267   308.50542927
 N      4   1   2     2.762001250536   107.91668124   163.80949538
 H      6   4   1     2.057740181696   110.14084580    67.38575894
 H      6   4   1     2.056324666645   110.85883802   188.07341668
 H      4   1   2     2.073846062442   105.56916452   278.86416435
 H      8   4   1     1.914112037944   111.24705153   158.76016393
 H      8   4   1     1.920776422691   109.84154648   277.60964793

---------------------
BASIS SET INFORMATION
---------------------
There are 4 groups of distinct atoms

 Group   1 Type C   : 10s4p1d contracted to 3s2p1d pattern {631/31/1}
 Group   2 Type O   : 10s4p1d contracted to 3s2p1d pattern {631/31/1}
 Group   3 Type H   : 4s1p contracted to 2s1p pattern {31/1}
 Group   4 Type N   : 10s4p1d contracted to 3s2p1d pattern {631/31/1}

Atom   0C    basis set group =>   1
Atom   1O    basis set group =>   2
Atom   2O    basis set group =>   2
Atom   3C    basis set group =>   1
Atom   4H    basis set group =>   3
Atom   5C    basis set group =>   1
Atom   6H    basis set group =>   3
Atom   7N    basis set group =>   4
Atom   8H    basis set group =>   3
Atom   9H    basis set group =>   3
Atom  10H    basis set group =>   3
Atom  11H    basis set group =>   3
Atom  12H    basis set group =>   3
------------------------------------------------------------------------------
                             ORCA STARTUP CALCULATIONS
------------------------------------------------------------------------------
------------------------------------------------------------------------------
                   ___                                                        
                  /   \      - P O W E R E D   B Y -                         
                 /     \                                                     
                 |  |  |   _    _      __       _____    __    __             
                 |  |  |  | |  | |    /  \     |  _  \  |  |  /  |          
                  \  \/   | |  | |   /    \    | | | |  |  | /  /          
                 / \  \   | |__| |  /  /\  \   | |_| |  |  |/  /          
                |  |  |   |  __  | /  /__\  \  |    /   |      \           
                |  |  |   | |  | | |   __   |  |    \   |  |\   \          
                \     /   | |  | | |  |  |  |  | |\  \  |  | \   \       
                 \___/    |_|  |_| |__|  |__|  |_| \__\ |__|  \__/        
                                                                              
                      - O R C A' S   B I G   F R I E N D -                    
                                      &                                       
                       - I N T E G R A L  F E E D E R -                       
                                                                              
 v1 FN, 2020, v2 2021, v3 2022-2024                                           
------------------------------------------------------------------------------


----------------------
SHARK INTEGRAL PACKAGE
----------------------

Number of atoms                             ...     13
Number of basis functions                   ...    119
Number of shells                            ...     57
Maximum angular momentum                    ...      2
Integral batch strategy                     ... SHARK/LIBINT Hybrid
RI-J (if used) integral strategy            ... SPLIT-RIJ (Revised 2003 algorithm where possible)
Printlevel                                  ...      1
Contraction scheme used                     ... SEGMENTED contraction
Prescreening option                         ... SCHWARTZ
   Thresh                                   ... 2.500e-11
   Tcut                                     ... 2.500e-12
   Tpresel                                  ... 2.500e-12 
Coulomb Range Separation                    ... NOT USED
Exchange Range Separation                   ... NOT USED
Multipole approximations                    ... NOT USED
Finite Nucleus Model                        ... NOT USED
CABS basis                                  ... NOT available
Auxiliary Coulomb fitting basis             ... NOT available
Auxiliary J/K fitting basis                 ... NOT available
Auxiliary Correlation fitting basis         ... NOT available
Auxiliary 'external' fitting basis          ... NOT available

Checking pre-screening integrals            ... done (  0.0 sec) Dimension = 57
   => SHARK Basis and OBASIS are compatible. Storing Pre-screening
Shell pair information
Shell pair cut-off parameter TPreSel        ...   2.5e-12
Total number of shell pairs                 ...      1653
Shell pairs after pre-screening             ...      1601
Total number of primitive shell pairs       ...      8022
Primitive shell pairs kept                  ...      5594
          la=0 lb=0:    507 shell pairs
          la=1 lb=0:    586 shell pairs
          la=1 lb=1:    186 shell pairs
          la=2 lb=0:    188 shell pairs
          la=2 lb=1:    113 shell pairs
          la=2 lb=2:     21 shell pairs

Checking whether 4 symmetric matrices of dimension 119 fit in memory
:Max Core in MB      =   4096.00
 MB in use           =      3.43
 MB left             =   4092.57
 MB needed           =      0.22
 Data fit in memory  = YES
Calculating Nuclear repulsion               ... done (  0.0 sec) ENN=    251.323939742135 Eh

Diagonalization of the overlap matrix:
Smallest eigenvalue                        ... 3.452e-03
Time for diagonalization                   ...    0.001 sec
Threshold for overlap eigenvalues          ... 1.000e-07
Number of eigenvalues below threshold      ... 0
Time for construction of square roots      ...    0.000 sec
Total time needed                          ...    0.001 sec

-------------------
DFT GRID GENERATION
-------------------

General Integration Accuracy     IntAcc      ... 4.388
Radial Grid Type                 RadialGrid  ... OptM3 with GC (2021)
Angular Grid (max. ang.)         AngularGrid ... 4 (Lebedev-302)
Angular grid pruning method      GridPruning ... 4 (adaptive)
Weight generation scheme         WeightScheme... mBecke (2022)
Basis function cutoff            BFCut       ... 1.0000e-11
Integration weight cutoff        WCut        ... 1.0000e-14
Partially contracted basis set               ... off
Rotationally invariant grid construction     ... off
Angular grids for H and He will be reduced by one unit

Total number of grid points                  ...    58878
Total number of batches                      ...      926
Average number of points per batch           ...       63
Average number of grid points per atom       ...     4529
Grids setup in   0.2 sec
Initializing property integral containers    ... done (  0.0 sec)

SHARK setup successfully completed in   0.2 seconds

Maximum memory used throughout the entire STARTUP-calculation: 22.7 MB
-------------------------------------------------------------------------------
                                 ORCA GUESS
                   Start orbitals & Density for SCF / CASSCF
-------------------------------------------------------------------------------

------------
SCF SETTINGS
------------
Hamiltonian:
 Ab initio Hamiltonian  Method          .... Hartree-Fock(GTOs)


General Settings:
 Integral files         IntName         .... 5
 Hartree-Fock type      HFTyp           .... RHF
 Total Charge           Charge          ....    0
 Multiplicity           Mult            ....    1
 Number of Electrons    NEL             ....   48
 Basis Dimension        Dim             ....  119
 Nuclear Repulsion      ENuc            ....    251.3239397421 Eh

Convergence Acceleration:
 AO-DIIS                CNVDIIS         .... on
   Start iteration      DIISMaxIt       ....    12
   Startup error        DIISStart       ....  0.200000
   # of expansion vecs  DIISMaxEq       ....     5
   Bias factor          DIISBfac        ....   1.050
   Max. coefficient     DIISMaxC        ....  10.000
 MO-DIIS                CNVKDIIS        .... off
 Trust-Rad. Augm. Hess. CNVTRAH         .... auto
   Auto Start mean grad. ratio tolernc. ....  1.125000
   Auto Start start iteration           ....    50
   Auto Start num. interpolation iter.  ....    10
   Max. Number of Micro iterations      ....    24
   Max. Number of Macro iterations      .... Maxiter - #DIIS iter
   Number of Davidson start vectors     ....     2
   Converg. threshold    (grad. norm)   ....   1.000e-05
   Grad. Scal. Fac. for Micro threshold ....   0.100
   Minimum threshold for Micro iter.    ....   1.000e-02
   NR start threshold (gradient norm)   ....   1.000e-04
   Initial trust radius                 ....   0.400
   Minimum AH scaling param. (alpha)    ....   1.000
   Maximum AH scaling param. (alpha)    .... 1000.000
   Quad. conv. algorithm                .... NR
   White noise on init. David. guess    .... on
   Maximum white noise                  ....   0.010
   Pseudo random numbers                .... off
   Inactive MOs                         .... canonical
   Orbital update algorithm             .... Taylor
   Preconditioner                       .... Diag
   Full preconditioner red. dimension   ....   250
 SOSCF                 CNVSOSCF           .... on
   Start iteration     SOSCFMaxIt         ....   150
   Startup grad/error  SOSCFStart         ....  0.003300
   Hessian update      SOSCFHessUp        .... L-BFGS
   Autom. constraints  SOSCFAutoConstrain .... off
 Level Shifting         CNVShift        .... on
   Level shift para.    LevelShift      ....    0.2500
   Turn off err/grad.   ShiftErr        ....    0.0010
 Zerner damping         CNVZerner       .... off
 Static damping         CNVDamp         .... on
   Fraction old density DampFac         ....    0.7000
   Max. Damping (<1)    DampMax         ....    0.9800
   Min. Damping (>=0)   DampMin         ....    0.0000
   Turn off err/grad.   DampErr         ....    0.1000

SCF Procedure:
 Maximum # iterations   MaxIter         ....   125
 SCF integral mode      SCFMode         .... Direct
   Integral package                     .... SHARK and LIBINT hybrid scheme
 Reset frequency        DirectResetFreq ....    20
 Integral Threshold     Thresh          ....  2.500e-11 Eh
 Primitive CutOff       TCut            ....  2.500e-12 Eh

Convergence Tolerance:
 Convergence Check Mode ConvCheckMode   .... Total+1el-Energy
 Convergence forced     ConvForced      .... 1
 Energy Change          TolE            ....  1.000e-08 Eh
 1-El. energy change                    ....  1.000e-05 Eh
 Orbital Gradient       TolG            ....  1.000e-05
 Orbital Rotation angle TolX            ....  1.000e-05
 DIIS Error             TolErr          ....  5.000e-07

------------------------------
INITIAL GUESS: MODEL POTENTIAL
------------------------------
Loading Hartree-Fock densities                     ... done
Calculating cut-offs                               ... done
Initializing the effective Hamiltonian             ... done
Setting up the integral package (SHARK)            ... done
Starting the Coulomb interaction                   ... done (   0.0 sec)
Making the grid                                    ... done (   0.0 sec)
Mapping shells                                     ... done
Starting the XC term evaluation                    ... done (   0.0 sec)
Transforming the Hamiltonian                       ... done (   0.0 sec)
Diagonalizing the Hamiltonian                      ... done (   0.0 sec)
Back transforming the eigenvectors                 ... done (   0.0 sec)
Now organizing SCF variables                       ... done
                      ------------------
                      INITIAL GUESS DONE (   0.1 sec)
                      ------------------
             **** ENERGY FILE WAS UPDATED (5.en.tmp) ****
Finished Guess after   0.1 sec
Maximum memory used throughout the entire GUESS-calculation: 7.4 MB

-------------------------------------------------------------------------------------------
                                      ORCA LEAN-SCF
                              memory conserving SCF solver
-------------------------------------------------------------------------------------------

----------------------------------------D-I-I-S--------------------------------------------
Iteration    Energy (Eh)           Delta-E    RMSDP     MaxDP     DIISErr   Damp  Time(sec)
-------------------------------------------------------------------------------------------
               ***  Starting incremental Fock matrix formation  ***
    1    -321.5967462196135784     0.00e+00  3.17e-03  6.49e-02  2.61e-01  0.700   0.5
    2    -321.6993634119783110    -1.03e-01  2.34e-03  4.66e-02  1.59e-01  0.700   0.5
                               ***Turning on AO-DIIS***
    3    -321.7590631987299048    -5.97e-02  1.25e-03  2.13e-02  8.93e-02  0.700   0.5
    4    -321.7965961417421568    -3.75e-02  2.82e-03  4.80e-02  6.37e-02  0.000   0.5
    5    -321.8799133134480144    -8.33e-02  3.60e-04  7.17e-03  6.92e-03  0.000   0.5
    6    -321.8802826079964916    -3.69e-04  1.83e-04  3.06e-03  3.37e-03  0.000   0.5
                              *** Initializing SOSCF ***
---------------------------------------S-O-S-C-F--------------------------------------
Iteration    Energy (Eh)           Delta-E    RMSDP     MaxDP     MaxGrad    Time(sec)
--------------------------------------------------------------------------------------
    7    -321.8803722786547041    -8.97e-05  1.19e-04  2.41e-03  2.21e-03     0.4
               *** Restarting incremental Fock matrix formation ***
    8    -321.8804038431633217    -3.16e-05  6.02e-05  8.25e-04  5.42e-04     0.5
    9    -321.8804111021859171    -7.26e-06  6.43e-05  1.26e-03  3.30e-04     0.4
   10    -321.8804138956843417    -2.79e-06  1.00e-05  2.37e-04  7.51e-05     0.4
   11    -321.8804140323304637    -1.37e-07  3.91e-06  8.91e-05  4.03e-05     0.4
   12    -321.8804140694882108    -3.72e-08  1.15e-06  2.20e-05  7.34e-06     0.4
   13    -321.8804140720053510    -2.52e-09  6.32e-07  1.21e-05  1.89e-06     0.3
                 **** Energy Check signals convergence ****

               *****************************************************
               *                     SUCCESS                       *
               *           SCF CONVERGED AFTER  13 CYCLES          *
               *****************************************************

             **** ENERGY FILE WAS UPDATED (5.en.tmp) ****

----------------
TOTAL SCF ENERGY
----------------

Total Energy       :       -321.88041407212449 Eh           -8758.81136 eV

Components:
Nuclear Repulsion  :        251.32393974213485 Eh            6838.87208 eV
Electronic Energy  :       -573.20435381425932 Eh          -15597.68344 eV
One Electron Energy:       -937.95453298076518 Eh          -25523.04041 eV
Two Electron Energy:        364.75017916650586 Eh            9925.35697 eV

Virial components:
Potential Energy   :       -643.33572007511111 Eh          -17506.05493 eV
Kinetic Energy     :        321.45530600298667 Eh            8747.24358 eV
Virial Ratio       :          2.00132244844368

---------------
SCF CONVERGENCE
---------------

  Last Energy change         ...    2.5171e-09  Tolerance :   1.0000e-08
  Last MAX-Density change    ...    1.2067e-05  Tolerance :   1.0000e-07
  Last RMS-Density change    ...    6.3238e-07  Tolerance :   5.0000e-09
  Last DIIS Error            ...    2.2062e-03  Tolerance :   5.0000e-07
  Last Orbital Gradient      ...    1.8936e-06  Tolerance :   1.0000e-05
  Last Orbital Rotation      ...    6.9060e-06  Tolerance :   1.0000e-05


----------------
ORBITAL ENERGIES
----------------

  NO   OCC          E(Eh)            E(eV) 
   0   2.0000     -20.593637      -560.3814 
   1   2.0000     -20.537199      -558.8456 
   2   2.0000     -15.587323      -424.1526 
   3   2.0000     -11.372767      -309.4687 
   4   2.0000     -11.289432      -307.2011 
   5   2.0000     -11.232889      -305.6625 
   6   2.0000      -1.449943       -39.4550 
   7   2.0000      -1.353208       -36.8227 
   8   2.0000      -1.225000       -33.3339 
   9   2.0000      -1.026034       -27.9198 
  10   2.0000      -0.899066       -24.4648 
  11   2.0000      -0.802711       -21.8429 
  12   2.0000      -0.744783       -20.2666 
  13   2.0000      -0.681286       -18.5387 
  14   2.0000      -0.655672       -17.8417 
  15   2.0000      -0.625583       -17.0230 
  16   2.0000      -0.612885       -16.6774 
  17   2.0000      -0.589334       -16.0366 
  18   2.0000      -0.568648       -15.4737 
  19   2.0000      -0.527727       -14.3602 
  20   2.0000      -0.525517       -14.3001 
  21   2.0000      -0.459309       -12.4984 
  22   2.0000      -0.451608       -12.2889 
  23   2.0000      -0.415526       -11.3070 
  24   0.0000       0.172637         4.6977 
  25   0.0000       0.219603         5.9757 
  26   0.0000       0.251664         6.8481 
  27   0.0000       0.271505         7.3880 
  28   0.0000       0.289329         7.8730 
  29   0.0000       0.306097         8.3293 
  30   0.0000       0.319369         8.6905 
  31   0.0000       0.324183         8.8215 
  32   0.0000       0.393706        10.7133 
  33   0.0000       0.409220        11.1354 
  34   0.0000       0.453642        12.3442 
*Only the first 10 virtual orbitals were printed.

                    ********************************
                    * MULLIKEN POPULATION ANALYSIS *
                    ********************************

-----------------------
MULLIKEN ATOMIC CHARGES
-----------------------
   0 C :    0.828630
   1 O :   -0.572848
   2 O :   -0.648272
   3 C :   -0.073075
   4 H :    0.404885
   5 C :   -0.329973
   6 H :    0.165302
   7 N :   -0.760236
   8 H :    0.116784
   9 H :    0.114873
  10 H :    0.169051
  11 H :    0.296232
  12 H :    0.288646
Sum of atomic charges:    0.0000000

--------------------------------
MULLIKEN REDUCED ORBITAL CHARGES
--------------------------------
  0 C s       :     2.933202  s :     2.933202
      pz      :     0.637839  p :     2.088701
      px      :     0.678972
      py      :     0.771891
      dz2     :     0.013755  d :     0.149467
      dxz     :     0.017399
      dyz     :     0.025968
      dx2y2   :     0.037268
      dxy     :     0.055076

  1 O s       :     3.875770  s :     3.875770
      pz      :     1.483382  p :     4.663850
      px      :     1.790569
      py      :     1.389899
      dz2     :     0.003632  d :     0.033228
      dxz     :     0.000536
      dyz     :     0.012422
      dx2y2   :     0.008582
      dxy     :     0.008055

  2 O s       :     3.842549  s :     3.842549
      pz      :     1.775120  p :     4.778282
      px      :     1.544223
      py      :     1.458939
      dz2     :     0.003994  d :     0.027441
      dxz     :     0.006446
      dyz     :     0.000737
      dx2y2   :     0.011910
      dxy     :     0.004354

  3 C s       :     3.218597  s :     3.218597
      pz      :     1.057639  p :     2.786249
      px      :     0.952357
      py      :     0.776253
      dz2     :     0.014558  d :     0.068228
      dxz     :     0.014330
      dyz     :     0.007108
      dx2y2   :     0.010160
      dxy     :     0.022072

  4 H s       :     0.551538  s :     0.551538
      pz      :     0.008371  p :     0.043577
      px      :     0.006783
      py      :     0.028423

  5 C s       :     3.254480  s :     3.254480
      pz      :     0.948127  p :     3.034536
      px      :     0.997802
      py      :     1.088607
      dz2     :     0.010846  d :     0.040957
      dxz     :     0.012138
      dyz     :     0.001588
      dx2y2   :     0.005768
      dxy     :     0.010617

  6 H s       :     0.821573  s :     0.821573
      pz      :     0.001771  p :     0.013125
      px      :     0.002515
      py      :     0.008839

  7 N s       :     3.617487  s :     3.617487
      pz      :     1.435065  p :     4.109965
      px      :     1.527001
      py      :     1.147900
      dz2     :     0.011589  d :     0.032785
      dxz     :     0.001997
      dyz     :     0.003244
      dx2y2   :     0.002704
      dxy     :     0.013251

  8 H s       :     0.870497  s :     0.870497
      pz      :     0.007204  p :     0.012719
      px      :     0.003565
      py      :     0.001951

  9 H s       :     0.872430  s :     0.872430
      pz      :     0.001762  p :     0.012697
      px      :     0.006315
      py      :     0.004619

 10 H s       :     0.818570  s :     0.818570
      pz      :     0.007006  p :     0.012379
      px      :     0.004086
      py      :     0.001287

 11 H s       :     0.677625  s :     0.677625
      pz      :     0.006618  p :     0.026143
      px      :     0.009230
      py      :     0.010294

 12 H s       :     0.685808  s :     0.685808
      pz      :     0.014068  p :     0.025546
      px      :     0.007592
      py      :     0.003886



                     *******************************
                     * LOEWDIN POPULATION ANALYSIS *
                     *******************************

----------------------
LOEWDIN ATOMIC CHARGES
----------------------
   0 C :    0.228154
   1 O :   -0.289718
   2 O :   -0.209778
   3 C :   -0.037772
   4 H :    0.193204
   5 C :   -0.182289
   6 H :    0.089995
   7 N :   -0.286667
   8 H :    0.067196
   9 H :    0.064781
  10 H :    0.087788
  11 H :    0.139446
  12 H :    0.135661

-------------------------------
LOEWDIN REDUCED ORBITAL CHARGES
-------------------------------
  0 C s       :     2.843299  s :     2.843299
      pz      :     0.701482  p :     2.603929
      px      :     0.888850
      py      :     1.013597
      dz2     :     0.028191  d :     0.324618
      dxz     :     0.037790
      dyz     :     0.053031
      dx2y2   :     0.081863
      dxy     :     0.123743

  1 O s       :     3.542181  s :     3.542181
      pz      :     1.460794  p :     4.689911
      px      :     1.749285
      py      :     1.479832
      dz2     :     0.007065  d :     0.057626
      dxz     :     0.001133
      dyz     :     0.015728
      dx2y2   :     0.020419
      dxy     :     0.013280

  2 O s       :     3.460145  s :     3.460145
      pz      :     1.733191  p :     4.700306
      px      :     1.557404
      py      :     1.409712
      dz2     :     0.006188  d :     0.049327
      dxz     :     0.009764
      dyz     :     0.001951
      dx2y2   :     0.022901
      dxy     :     0.008522

  3 C s       :     2.878895  s :     2.878895
      pz      :     1.073518  p :     3.022687
      px      :     1.027332
      py      :     0.921838
      dz2     :     0.027496  d :     0.136190
      dxz     :     0.027041
      dyz     :     0.014354
      dx2y2   :     0.021246
      dxy     :     0.046053

  4 H s       :     0.674550  s :     0.674550
      pz      :     0.026417  p :     0.132246
      px      :     0.022617
      py      :     0.083212

  5 C s       :     2.910931  s :     2.910931
      pz      :     1.037128  p :     3.197889
      px      :     1.059507
      py      :     1.101253
      dz2     :     0.019717  d :     0.073470
      dxz     :     0.022725
      dyz     :     0.003385
      dx2y2   :     0.009807
      dxy     :     0.017835

  6 H s       :     0.868023  s :     0.868023
      pz      :     0.006341  p :     0.041982
      px      :     0.008926
      py      :     0.026715

  7 N s       :     3.187272  s :     3.187272
      pz      :     1.398426  p :     4.040401
      px      :     1.482567
      py      :     1.159408
      dz2     :     0.016462  d :     0.058994
      dxz     :     0.004747
      dyz     :     0.008049
      dx2y2   :     0.007692
      dxy     :     0.022044

  8 H s       :     0.893016  s :     0.893016
      pz      :     0.021258  p :     0.039788
      px      :     0.011450
      py      :     0.007080

  9 H s       :     0.895355  s :     0.895355
      pz      :     0.006345  p :     0.039864
      px      :     0.018922
      py      :     0.014597

 10 H s       :     0.872465  s :     0.872465
      pz      :     0.021157  p :     0.039747
      px      :     0.013223
      py      :     0.005368

 11 H s       :     0.777464  s :     0.777464
      pz      :     0.020509  p :     0.083090
      px      :     0.030829
      py      :     0.031752

 12 H s       :     0.782215  s :     0.782215
      pz      :     0.044543  p :     0.082124
      px      :     0.024402
      py      :     0.013179



                      *****************************
                      * MAYER POPULATION ANALYSIS *
                      *****************************

  NA   - Mulliken gross atomic population
  ZA   - Total nuclear charge
  QA   - Mulliken gross atomic charge
  VA   - Mayer's total valence
  BVA  - Mayer's bonded valence
  FA   - Mayer's free valence

  ATOM       NA         ZA         QA         VA         BVA        FA
  0 C      5.1714     6.0000     0.8286     3.7286     3.7286     0.0000
  1 O      8.5728     8.0000    -0.5728     1.9107     1.9107    -0.0000
  2 O      8.6483     8.0000    -0.6483     1.8389     1.8389     0.0000
  3 C      6.0731     6.0000    -0.0731     3.7214     3.7214    -0.0000
  4 H      0.5951     1.0000     0.4049     0.8574     0.8574     0.0000
  5 C      6.3300     6.0000    -0.3300     3.8350     3.8350    -0.0000
  6 H      0.8347     1.0000     0.1653     0.9494     0.9494    -0.0000
  7 N      7.7602     7.0000    -0.7602     2.7378     2.7378    -0.0000
  8 H      0.8832     1.0000     0.1168     0.9543     0.9543    -0.0000
  9 H      0.8851     1.0000     0.1149     0.9527     0.9527     0.0000
 10 H      0.8309     1.0000     0.1691     0.9361     0.9361     0.0000
 11 H      0.7038     1.0000     0.2962     0.8959     0.8959     0.0000
 12 H      0.7114     1.0000     0.2886     0.8963     0.8963    -0.0000

  Mayer bond orders larger than 0.100000
B(  0-C ,  1-O ) :   1.8333 B(  0-C ,  2-O ) :   1.0100 B(  0-C ,  3-C ) :   0.9333 
B(  2-O ,  4-H ) :   0.7820 B(  3-C ,  5-C ) :   0.9700 B(  3-C ,  7-N ) :   0.9046 
B(  3-C , 10-H ) :   0.9568 B(  5-C ,  6-H ) :   0.9564 B(  5-C ,  8-H ) :   0.9713 
B(  5-C ,  9-H ) :   0.9726 B(  7-N , 11-H ) :   0.9007 B(  7-N , 12-H ) :   0.8982 


-------
TIMINGS
-------

Total SCF time: 0 days 0 hours 0 min 6 sec 

Total time                  ....       6.035 sec
Sum of individual times     ....       5.698 sec  ( 94.4%)

SCF preparation             ....       0.014 sec  (  0.2%)
Fock matrix formation       ....       5.656 sec  ( 93.7%)
  Startup                   ....       0.000 sec  (  0.0% of F)
  Coulomb+Exchange Fock     ....       5.985 sec  (105.8% of F)
Diagonalization             ....       0.000 sec  (  0.0%)
Density matrix formation    ....       0.002 sec  (  0.0%)
Total Energy calculation    ....       0.000 sec  (  0.0%)
Population analysis         ....       0.001 sec  (  0.0%)
Orbital Transformation      ....       0.005 sec  (  0.1%)
Orbital Orthonormalization  ....       0.000 sec  (  0.0%)
DIIS solution               ....       0.013 sec  (  0.2%)
SOSCF solution              ....       0.005 sec  (  0.1%)
Finished LeanSCF after   6.0 sec

Maximum memory used throughout the entire LEANSCF-calculation: 10.6 MB

------------------------------------------------------------------------------
                                ORCA  MP2 
------------------------------------------------------------------------------

Freezing NCore=12 chemical core electrons
MP2 will be done in the AO integral direct mode
The Q1-step will be done using symmetric double matrices
Dimension of the basis                    ...  119
Memory devoted for MP2                    ... 4096 MB   
Memory needed for all in one shot         ...  118 MB
Number of MOs that can be treated together...  630      
MP2 density construction                  ... relaxed
The MP2 gradient is requested => amplitudes will be stored on disk
Total number of MOs              ...   18
Number of MOs treated per batch  ...   18 
Number of batches necessary      ...    1 
OPERATORS   0/  0 PASS   0
-----------------------------------------------
 MP2 CORRELATION ENERGY   :     -0.938059433 Eh
-----------------------------------------------


---------------------
MP2 DENSITY FORMATION
---------------------

Completing the external part of the density      ... done
Storing the unrelaxed density                    ... done

Calculating G(D)                                 ... done
Completing the Lagrangian                        ... done
Solving the Z-vector equations                   ... 
-------------------
SHARK CP-SCF DRIVER
-------------------

Dimension of the orbital basis          ...    119
Dimension of the CPSCF-problem          ...   2280
Number of operators                     ...      1
Max. number of iterations               ...    128
Convergence Tolerance                   ... 1.0e-04
Number of perturbations                 ...      1
Perturbation type                       ... REAL

----------------------------
POPLE LINEAR EQUATION SOLVER
----------------------------

  ITERATION   0:   ||err||_max =   1.1883e-01 (   0.6 sec)
  ITERATION   1:   ||err||_max =   3.0826e-02 (   0.6 sec)
  ITERATION   2:   ||err||_max =   1.3295e-02 (   0.6 sec)
  ITERATION   3:   ||err||_max =   3.2533e-03 (   0.6 sec)
  ITERATION   4:   ||err||_max =   1.1482e-03 (   0.6 sec)
  ITERATION   5:   ||err||_max =   2.7990e-04 (   0.6 sec)
  ITERATION   6:   ||err||_max =   8.0581e-05 (   0.6 sec)
                                                 ... done
Finalizing the relaxed density                   ... done
Transforming P to the AO basis                   ... done
Storing the relaxed density                      ... done

------------------------------------
ENERGY WEIGHTED DENSITY FINALIZATION
------------------------------------

Gathering the parts of the W-matrix              ...                                                      done
Forming the Z-density                            ... done
Transforming Z to the AO basis                   ... done
Calculating G(Z)                                 ... done
Finalizing the W-matrix                          ...                                                      done
Transforming W to the AO basis and storing       ... done

                *********************************************
                * UNRELAXED MP2 DENSITY POPULATION ANALYSIS *
                *********************************************

------------------------------------------------------------------------------
                           ORCA POPULATION ANALYSIS
------------------------------------------------------------------------------
Input electron density              ... 5.pmp2ur
BaseName (.gbw .S,...)              ... 5

                    ********************************
                    * MULLIKEN POPULATION ANALYSIS *
                    ********************************

-----------------------
MULLIKEN ATOMIC CHARGES
-----------------------
   0 C :    0.795470
   1 O :   -0.550508
   2 O :   -0.633549
   3 C :   -0.078988
   4 H :    0.400492
   5 C :   -0.332507
   6 H :    0.165571
   7 N :   -0.751544
   8 H :    0.117789
   9 H :    0.115844
  10 H :    0.169698
  11 H :    0.294938
  12 H :    0.287295
Sum of atomic charges:   -0.0000000

--------------------------------
MULLIKEN REDUCED ORBITAL CHARGES
--------------------------------
  0 C s       :     2.935560  s :     2.935560
      pz      :     0.653010  p :     2.109063
      px      :     0.684413
      py      :     0.771640
      dz2     :     0.015638  d :     0.159907
      dxz     :     0.019586
      dyz     :     0.027952
      dx2y2   :     0.039660
      dxy     :     0.057072
  1 O s       :     3.871427  s :     3.871427
      pz      :     1.467872  p :     4.624367
      px      :     1.775621
      py      :     1.380874
      dz2     :     0.007795  d :     0.054713
      dxz     :     0.004940
      dyz     :     0.016524
      dx2y2   :     0.012768
      dxy     :     0.012686
  2 O s       :     3.838463  s :     3.838463
      pz      :     1.761392  p :     4.744634
      px      :     1.533390
      py      :     1.449853
      dz2     :     0.008633  d :     0.050451
      dxz     :     0.011043
      dyz     :     0.005405
      dx2y2   :     0.016390
      dxy     :     0.008980
  3 C s       :     3.215436  s :     3.215436
      pz      :     1.052504  p :     2.779920
      px      :     0.950028
      py      :     0.777388
      dz2     :     0.017534  d :     0.083632
      dxz     :     0.017474
      dyz     :     0.010609
      dx2y2   :     0.013421
      dxy     :     0.024593
  4 H s       :     0.554761  s :     0.554761
      pz      :     0.009010  p :     0.044747
      px      :     0.007463
      py      :     0.028274
  5 C s       :     3.251479  s :     3.251479
      pz      :     0.945172  p :     3.024427
      px      :     0.994724
      py      :     1.084531
      dz2     :     0.013914  d :     0.056601
      dxz     :     0.014957
      dyz     :     0.005042
      dx2y2   :     0.008993
      dxy     :     0.013695
  6 H s       :     0.818695  s :     0.818695
      pz      :     0.002794  p :     0.015734
      px      :     0.003494
      py      :     0.009446
  7 N s       :     3.612642  s :     3.612642
      pz      :     1.426201  p :     4.083760
      px      :     1.516231
      py      :     1.141329
      dz2     :     0.015834  d :     0.055141
      dxz     :     0.006654
      dyz     :     0.007802
      dx2y2   :     0.007323
      dxy     :     0.017528
  8 H s       :     0.866746  s :     0.866746
      pz      :     0.007985  p :     0.015466
      px      :     0.004500
      py      :     0.002981
  9 H s       :     0.868737  s :     0.868737
      pz      :     0.002803  p :     0.015418
      px      :     0.007122
      py      :     0.005493
 10 H s       :     0.815247  s :     0.815247
      pz      :     0.007751  p :     0.015056
      px      :     0.004979
      py      :     0.002325
 11 H s       :     0.676990  s :     0.676990
      pz      :     0.007375  p :     0.028072
      px      :     0.009888
      py      :     0.010810
 12 H s       :     0.685145  s :     0.685145
      pz      :     0.014475  p :     0.027560
      px      :     0.008364
      py      :     0.004722


                     *******************************
                     * LOEWDIN POPULATION ANALYSIS *
                     *******************************

----------------------
LOEWDIN ATOMIC CHARGES
----------------------
   0 C :    0.204174
   1 O :   -0.271428
   2 O :   -0.200391
   3 C :   -0.042028
   4 H :    0.190074
   5 C :   -0.182736
   6 H :    0.089935
   7 N :   -0.281752
   8 H :    0.067469
   9 H :    0.065004
  10 H :    0.087895
  11 H :    0.138830
  12 H :    0.134956

-------------------------------
LOEWDIN REDUCED ORBITAL CHARGES
-------------------------------
  0 C s       :     2.844316  s :     2.844316
      pz      :     0.714638  p :     2.615678
      px      :     0.890347
      py      :     1.010693
      dz2     :     0.030852  d :     0.335832
      dxz     :     0.040154
      dyz     :     0.054928
      dx2y2   :     0.084974
      dxy     :     0.124923
  1 O s       :     3.539162  s :     3.539162
      pz      :     1.446018  p :     4.650619
      px      :     1.734914
      py      :     1.469687
      dz2     :     0.011634  d :     0.081648
      dxz     :     0.005576
      dyz     :     0.020515
      dx2y2   :     0.025697
      dxy     :     0.018227
  2 O s       :     3.458282  s :     3.458282
      pz      :     1.720001  p :     4.668195
      px      :     1.546874
      py      :     1.401320
      dz2     :     0.011172  d :     0.073914
      dxz     :     0.014746
      dyz     :     0.006577
      dx2y2   :     0.028101
      dxy     :     0.013317
  3 C s       :     2.879237  s :     2.879237
      pz      :     1.067114  p :     3.008902
      px      :     1.022329
      py      :     0.919458
      dz2     :     0.031094  d :     0.153889
      dxz     :     0.030934
      dyz     :     0.017899
      dx2y2   :     0.024778
      dxy     :     0.049183
  4 H s       :     0.675349  s :     0.675349
      pz      :     0.027083  p :     0.134577
      px      :     0.023456
      py      :     0.084038
  5 C s       :     2.910204  s :     2.910204
      pz      :     1.031643  p :     3.181262
      px      :     1.054071
      py      :     1.095548
      dz2     :     0.023324  d :     0.091271
      dxz     :     0.026165
      dyz     :     0.006937
      dx2y2   :     0.013387
      dxy     :     0.021459
  6 H s       :     0.863711  s :     0.863711
      pz      :     0.007552  p :     0.046354
      px      :     0.010254
      py      :     0.028549
  7 N s       :     3.185333  s :     3.185333
      pz      :     1.389314  p :     4.013180
      px      :     1.471647
      py      :     1.152219
      dz2     :     0.021340  d :     0.083240
      dxz     :     0.009587
      dyz     :     0.012675
      dx2y2   :     0.012510
      dxy     :     0.027128
  8 H s       :     0.888205  s :     0.888205
      pz      :     0.023115  p :     0.044327
      px      :     0.012897
      py      :     0.008314
  9 H s       :     0.890591  s :     0.890591
      pz      :     0.007578  p :     0.044405
      px      :     0.020665
      py      :     0.016162
 10 H s       :     0.867671  s :     0.867671
      pz      :     0.022968  p :     0.044434
      px      :     0.014755
      py      :     0.006711
 11 H s       :     0.774508  s :     0.774508
      pz      :     0.021404  p :     0.086662
      px      :     0.032095
      py      :     0.033163
 12 H s       :     0.779259  s :     0.779259
      pz      :     0.046203  p :     0.085786
      px      :     0.025329
      py      :     0.014254


                      *****************************
                      * MAYER POPULATION ANALYSIS *
                      *****************************

  NA   - Mulliken gross atomic population
  ZA   - Total nuclear charge
  QA   - Mulliken gross atomic charge
  VA   - Mayer's total valence
  BVA  - Mayer's bonded valence
  FA   - Mayer's free valence

  ATOM       NA         ZA         QA         VA         BVA        FA
  0 C      5.2045     6.0000     0.7955     3.7858     3.4993     0.2865
  1 O      8.5505     8.0000    -0.5505     2.1731     1.7774     0.3957
  2 O      8.6335     8.0000    -0.6335     2.0997     1.7386     0.3611
  3 C      6.0790     6.0000    -0.0790     3.8011     3.5222     0.2789
  4 H      0.5995     1.0000     0.4005     0.8649     0.8220     0.0429
  5 C      6.3325     6.0000    -0.3325     3.9226     3.6727     0.2500
  6 H      0.8344     1.0000     0.1656     0.9576     0.9124     0.0452
  7 N      7.7515     7.0000    -0.7515     2.9391     2.6071     0.3320
  8 H      0.8822     1.0000     0.1178     0.9635     0.9171     0.0464
  9 H      0.8842     1.0000     0.1158     0.9619     0.9151     0.0468
 10 H      0.8303     1.0000     0.1697     0.9443     0.8971     0.0472
 11 H      0.7051     1.0000     0.2949     0.9024     0.8583     0.0441
 12 H      0.7127     1.0000     0.2873     0.9034     0.8582     0.0451

  Mayer bond orders larger than 0.100000
B(  0-C ,  1-O ) :   1.7138 B(  0-C ,  2-O ) :   0.9542 B(  0-C ,  3-C ) :   0.8817 
B(  2-O ,  4-H ) :   0.7500 B(  3-C ,  5-C ) :   0.9183 B(  3-C ,  7-N ) :   0.8516 
B(  3-C , 10-H ) :   0.9198 B(  5-C ,  6-H ) :   0.9207 B(  5-C ,  8-H ) :   0.9349 
B(  5-C ,  9-H ) :   0.9362 B(  7-N , 11-H ) :   0.8647 B(  7-N , 12-H ) :   0.8614 



                *******************************************
                * RELAXED MP2 DENSITY POPULATION ANALYSIS *
                *******************************************

------------------------------------------------------------------------------
                           ORCA POPULATION ANALYSIS
------------------------------------------------------------------------------
Input electron density              ... 5.pmp2re
BaseName (.gbw .S,...)              ... 5

                    ********************************
                    * MULLIKEN POPULATION ANALYSIS *
                    ********************************

-----------------------
MULLIKEN ATOMIC CHARGES
-----------------------
   0 C :    0.608841
   1 O :   -0.426372
   2 O :   -0.530006
   3 C :   -0.091279
   4 H :    0.364931
   5 C :   -0.330499
   6 H :    0.153397
   7 N :   -0.678781
   8 H :    0.113395
   9 H :    0.109857
  10 H :    0.155344
  11 H :    0.278451
  12 H :    0.272721
Sum of atomic charges:   -0.0000000

--------------------------------
MULLIKEN REDUCED ORBITAL CHARGES
--------------------------------
  0 C s       :     2.959098  s :     2.959098
      pz      :     0.757217  p :     2.281687
      px      :     0.736609
      py      :     0.787861
      dz2     :     0.014596  d :     0.150374
      dxz     :     0.019060
      dyz     :     0.025247
      dx2y2   :     0.037940
      dxy     :     0.053531
  1 O s       :     3.847820  s :     3.847820
      pz      :     1.415170  p :     4.526665
      px      :     1.726264
      py      :     1.385231
      dz2     :     0.007498  d :     0.051887
      dxz     :     0.005003
      dyz     :     0.014924
      dx2y2   :     0.011826
      dxy     :     0.012635
  2 O s       :     3.818426  s :     3.818426
      pz      :     1.716547  p :     4.662919
      px      :     1.521823
      py      :     1.424550
      dz2     :     0.008567  d :     0.048661
      dxz     :     0.010673
      dyz     :     0.005504
      dx2y2   :     0.015229
      dxy     :     0.008687
  3 C s       :     3.192623  s :     3.192623
      pz      :     1.039137  p :     2.822085
      px      :     0.971713
      py      :     0.811234
      dz2     :     0.015576  d :     0.076571
      dxz     :     0.015869
      dyz     :     0.010776
      dx2y2   :     0.013029
      dxy     :     0.021321
  4 H s       :     0.592041  s :     0.592041
      pz      :     0.009261  p :     0.043028
      px      :     0.007992
      py      :     0.025775
  5 C s       :     3.233219  s :     3.233219
      pz      :     0.960749  p :     3.045794
      px      :     1.003870
      py      :     1.081175
      dz2     :     0.012755  d :     0.051485
      dxz     :     0.012883
      dyz     :     0.005001
      dx2y2   :     0.008329
      dxy     :     0.012518
  6 H s       :     0.831674  s :     0.831674
      pz      :     0.003002  p :     0.014929
      px      :     0.003598
      py      :     0.008329
  7 N s       :     3.593245  s :     3.593245
      pz      :     1.407970  p :     4.032924
      px      :     1.493307
      py      :     1.131647
      dz2     :     0.014580  d :     0.052612
      dxz     :     0.006694
      dyz     :     0.007911
      dx2y2   :     0.007339
      dxy     :     0.016089
  8 H s       :     0.871845  s :     0.871845
      pz      :     0.007202  p :     0.014759
      px      :     0.004364
      py      :     0.003193
  9 H s       :     0.875439  s :     0.875439
      pz      :     0.003008  p :     0.014703
      px      :     0.006489
      py      :     0.005206
 10 H s       :     0.830401  s :     0.830401
      pz      :     0.006973  p :     0.014255
      px      :     0.004751
      py      :     0.002531
 11 H s       :     0.694667  s :     0.694667
      pz      :     0.007496  p :     0.026882
      px      :     0.009464
      py      :     0.009923
 12 H s       :     0.700820  s :     0.700820
      pz      :     0.013105  p :     0.026459
      px      :     0.008400
      py      :     0.004954


                     *******************************
                     * LOEWDIN POPULATION ANALYSIS *
                     *******************************

----------------------
LOEWDIN ATOMIC CHARGES
----------------------
   0 C :    0.124956
   1 O :   -0.202681
   2 O :   -0.163255
   3 C :   -0.061809
   4 H :    0.178290
   5 C :   -0.198576
   6 H :    0.089557
   7 N :   -0.264047
   8 H :    0.070418
   9 H :    0.067665
  10 H :    0.088254
  11 H :    0.137187
  12 H :    0.134041

-------------------------------
LOEWDIN REDUCED ORBITAL CHARGES
-------------------------------
  0 C s       :     2.848446  s :     2.848446
      pz      :     0.792187  p :     2.697051
      px      :     0.902232
      py      :     1.002632
      dz2     :     0.029740  d :     0.329547
      dxz     :     0.039591
      dyz     :     0.051509
      dx2y2   :     0.085066
      dxy     :     0.123641
  1 O s       :     3.541001  s :     3.541001
      pz      :     1.405194  p :     4.580578
      px      :     1.701656
      py      :     1.473728
      dz2     :     0.011615  d :     0.081103
      dxz     :     0.005659
      dyz     :     0.020452
      dx2y2   :     0.024760
      dxy     :     0.018618
  2 O s       :     3.462883  s :     3.462883
      pz      :     1.684997  p :     4.625575
      px      :     1.543683
      py      :     1.396896
      dz2     :     0.011681  d :     0.074797
      dxz     :     0.015185
      dyz     :     0.006764
      dx2y2   :     0.027769
      dxy     :     0.013398
  3 C s       :     2.882635  s :     2.882635
      pz      :     1.064825  p :     3.031961
      px      :     1.032643
      py      :     0.934493
      dz2     :     0.029246  d :     0.147214
      dxz     :     0.029995
      dyz     :     0.018211
      dx2y2   :     0.024427
      dxy     :     0.045335
  4 H s       :     0.688811  s :     0.688811
      pz      :     0.026836  p :     0.132899
      px      :     0.024010
      py      :     0.082053
  5 C s       :     2.911905  s :     2.911905
      pz      :     1.040141  p :     3.200825
      px      :     1.061286
      py      :     1.099398
      dz2     :     0.021971  d :     0.085846
      dxz     :     0.023795
      dyz     :     0.006961
      dx2y2   :     0.012790
      dxy     :     0.020329
  6 H s       :     0.864483  s :     0.864483
      pz      :     0.007891  p :     0.045959
      px      :     0.010372
      py      :     0.027697
  7 N s       :     3.185838  s :     3.185838
      pz      :     1.383966  p :     3.996503
      px      :     1.461329
      py      :     1.151207
      dz2     :     0.020496  d :     0.081706
      dxz     :     0.009537
      dyz     :     0.012708
      dx2y2   :     0.012827
      dxy     :     0.026138
  8 H s       :     0.885500  s :     0.885500
      pz      :     0.022719  p :     0.044082
      px      :     0.012919
      py      :     0.008445
  9 H s       :     0.888101  s :     0.888101
      pz      :     0.007905  p :     0.044234
      px      :     0.020316
      py      :     0.016013
 10 H s       :     0.867682  s :     0.867682
      pz      :     0.022294  p :     0.044063
      px      :     0.014619
      py      :     0.007150
 11 H s       :     0.777645  s :     0.777645
      pz      :     0.021027  p :     0.085168
      px      :     0.031796
      py      :     0.032346
 12 H s       :     0.781614  s :     0.781614
      pz      :     0.045166  p :     0.084345
      px      :     0.024919
      py      :     0.014260


                      *****************************
                      * MAYER POPULATION ANALYSIS *
                      *****************************

  NA   - Mulliken gross atomic population
  ZA   - Total nuclear charge
  QA   - Mulliken gross atomic charge
  VA   - Mayer's total valence
  BVA  - Mayer's bonded valence
  FA   - Mayer's free valence

  ATOM       NA         ZA         QA         VA         BVA        FA
  0 C      5.3912     6.0000     0.6088     3.9863     3.7163     0.2700
  1 O      8.4264     8.0000    -0.4264     2.3333     1.9519     0.3813
  2 O      8.5300     8.0000    -0.5300     2.2242     1.8724     0.3518
  3 C      6.0913     6.0000    -0.0913     3.8625     3.5883     0.2741
  4 H      0.6351     1.0000     0.3649     0.9024     0.8609     0.0415
  5 C      6.3305     6.0000    -0.3305     3.9485     3.7002     0.2483
  6 H      0.8466     1.0000     0.1534     0.9645     0.9195     0.0450
  7 N      7.6788     7.0000    -0.6788     3.0335     2.7065     0.3270
  8 H      0.8866     1.0000     0.1134     0.9664     0.9200     0.0464
  9 H      0.8901     1.0000     0.1099     0.9642     0.9174     0.0468
 10 H      0.8447     1.0000     0.1553     0.9488     0.9016     0.0473
 11 H      0.7215     1.0000     0.2785     0.9106     0.8664     0.0442
 12 H      0.7273     1.0000     0.2727     0.9120     0.8668     0.0452

  Mayer bond orders larger than 0.100000
B(  0-C ,  1-O ) :   1.8318 B(  0-C ,  2-O ) :   1.0374 B(  0-C ,  3-C ) :   0.8726 
B(  2-O ,  4-H ) :   0.7531 B(  3-C ,  5-C ) :   0.9339 B(  3-C ,  7-N ) :   0.8897 
B(  3-C , 10-H ) :   0.9130 B(  5-C ,  6-H ) :   0.9169 B(  5-C ,  8-H ) :   0.9323 
B(  5-C ,  9-H ) :   0.9319 B(  7-N , 11-H ) :   0.8670 B(  7-N , 12-H ) :   0.8649 



----------------------------------
MP2 DERIVATIVE INTEGRAL GENERATION
----------------------------------

Input SCF Electron Density              ... 5.scfp
Input Correlated Electron Density       ... 5.pmp2re
Input Energy Weighted Density           ... 5.wmp2.tmp
Input Wavefunction Amplitudes           ... 5.mp2tsaa.tmp

Nuclear repulsion gradient              ... done (  0.0 sec)
HCore & Overlap gradient  (SHARK)       ... done (  0.0 sec)
Analytic two-electron gradient terms    ... 
  Batch handling in the gradient evaluation:
  General contraction                   ... not used
  Memory available                      ... 4089.5 MB
  Memory per occupied orbital in Q2     ...    1.9 MB
  Memory per occupied orbital in Q3     ...    0.0 MB
  Total memory requirement per |i>      ...    2.0 MB
  Number of orbitals treated per batch  ...     18
  Number of batches to be done          ...      1
done (  3.5 sec)

---------------------------------------
MP2 TOTAL ENERGY:     -322.818473505 Eh
---------------------------------------

The final MP2 gradient
  0:   0.00926172   0.03336636  -0.00366626
  1:   0.00657392  -0.03465095   0.00814441
  2:  -0.02138469   0.00243973  -0.00728086
  3:   0.00152801  -0.00469189   0.00344524
  4:   0.00564063  -0.00302890   0.00098464
  5:  -0.00060252  -0.00152681  -0.00496798
  6:   0.00089126  -0.00095209   0.00104897
  7:  -0.00184333   0.00548966  -0.00158421
  8:  -0.00056240   0.00002246   0.00105501
  9:   0.00022141   0.00111938   0.00035202
 10:  -0.00167941   0.00106796   0.00187055
 11:  -0.00019440   0.00051422   0.00054530
 12:   0.00214980   0.00083088   0.00005316

-----------------------------------
NORM OF THE MP2 GRADIENT:  0.056566
-----------------------------------

Maximum memory used throughout the entire MP2-calculation: 135.2 MB

-------------------------   --------------------
FINAL SINGLE POINT ENERGY      -322.818473504827
-------------------------   --------------------

------------------------------------------------------------------------------
                         ORCA GEOMETRY RELAXATION STEP
------------------------------------------------------------------------------

Reading the OPT-File                    .... done
Getting information on internals        .... done
Copying old internal coords+grads       .... done
Making the new internal coordinates     .... (2022 redundants) done
Validating the new internal coordinates .... (2022 redundants) done
Calculating the B-matrix                .... done
Calculating the G,G- and P matrices     .... done
Transforming gradient to internals      .... done
Projecting the internal gradient        .... done
Number of atoms                         ....  13
Number of internal coordinates          ....  51
Current Energy                          ....  -322.818473505 Eh
Current gradient norm                   ....     0.056565604 Eh/bohr
Maximum allowed component of the step   ....  0.300
Current trust radius                    ....  0.300
Evaluating the initial hessian          ....  (Almloef) done
Projecting the Hessian                  .... done
Forming the augmented Hessian           .... done
Diagonalizing the augmented Hessian     .... done
Last element of RFO vector              ....  0.982675434
Lowest eigenvalues of augmented Hessian:
 -0.002706016  0.010762898  0.011374802  0.016985809  0.017916103
Length of the computed step             ....  0.188602262
The final length of the internal step   ....  0.188602262
Converting the step to Cartesian space:
 Initial RMS(Int)=    0.0264095991
Transforming coordinates:
 Iter   0:  RMS(Cart)=    0.0505481770 RMS(Int)=    0.8744503872
 Iter   5:  RMS(Cart)=    0.0000000422 RMS(Int)=    0.0000000333
done
Storing new coordinates                 .... done

                                .--------------------.
          ----------------------|Geometry convergence|-------------------------
          Item                value                   Tolerance       Converged
          ---------------------------------------------------------------------
          RMS gradient        0.0059183375            0.0001000000      NO
          MAX gradient        0.0361957393            0.0003000000      NO
          RMS step            0.0264095991            0.0020000000      NO
          MAX step            0.0878016106            0.0040000000      NO
          -------------------------------------------------------------------------
          ........................................................
          Max(Bonds)      0.0316      Max(Angles)    1.92
          Max(Dihed)        5.03      Max(Improp)    0.00
          ---------------------------------------------------------------------

The optimization has not yet converged - more geometry cycles are needed


    ---------------------------------------------------------------------------
                         Redundant Internal Coordinates
                            (Angstroem and degrees)

        Definition                    Value    dE/dq     Step     New-Value
    ----------------------------------------------------------------------------
     1. B(O   1,C   0)                1.1971 -0.036196  0.0168    1.2139   
     2. B(O   2,C   0)                1.3291 -0.015024  0.0113    1.3404   
     3. B(C   3,C   0)                1.5428 -0.000314  0.0005    1.5432   
     4. B(H   4,O   2)                0.9830  0.002040 -0.0022    0.9808   
     5. B(C   5,C   3)                1.5275  0.001807 -0.0025    1.5250   
     6. B(H   6,C   5)                1.0860 -0.001170  0.0017    1.0877   
     7. B(N   7,C   3)                1.4616 -0.005896  0.0072    1.4688   
     8. B(N   7,H   4)                1.8898 -0.001171  0.0316    1.9213   
     9. B(H   8,C   5)                1.0889 -0.001188  0.0017    1.0906   
    10. B(H   9,C   5)                1.0882 -0.000884  0.0013    1.0894   
    11. B(H  10,C   3)                1.0974  0.002550 -0.0038    1.0936   
    12. B(H  11,N   7)                1.0129 -0.000110  0.0001    1.0130   
    13. B(H  12,N   7)                1.0164  0.000503 -0.0006    1.0158   
    14. A(O   1,C   0,C   3)          123.35  0.000601   -0.09    123.26   
    15. A(O   2,C   0,C   3)          113.18 -0.000577    0.06    113.25   
    16. A(O   1,C   0,O   2)          123.45 -0.000008   -0.01    123.44   
    17. A(C   0,O   2,H   4)          107.64  0.012543   -1.92    105.72   
    18. A(C   0,C   3,H  10)          105.57  0.000608   -0.31    105.26   
    19. A(C   0,C   3,N   7)          107.92 -0.002489    0.76    108.68   
    20. A(C   0,C   3,C   5)          110.53  0.000890    0.10    110.62   
    21. A(C   5,C   3,N   7)          115.18  0.000067    0.18    115.36   
    22. A(N   7,C   3,H  10)          107.79  0.001437   -0.57    107.23   
    23. A(C   5,C   3,H  10)          109.38 -0.000455   -0.22    109.17   
    24. A(H   8,C   5,H   9)          108.97  0.001198   -0.24    108.73   
    25. A(H   6,C   5,H   9)          109.20 -0.000717    0.13    109.33   
    26. A(C   3,C   5,H   6)          109.32 -0.002446    0.44    109.76   
    27. A(C   3,C   5,H   9)          110.86  0.000449   -0.09    110.77   
[...]
MULLIKEN REDUCED ORBITAL CHARGES
--------------------------------
  0 C s       :     2.968758  s :     2.968758
      pz      :     0.756612  p :     2.272993
      px      :     0.735230
      py      :     0.781150
      dz2     :     0.015488  d :     0.144041
      dxz     :     0.018889
      dyz     :     0.024189
      dx2y2   :     0.035856
      dxy     :     0.049620
  1 O s       :     3.861845  s :     3.861845
      pz      :     1.419035  p :     4.523223
      px      :     1.721629
      py      :     1.382558
      dz2     :     0.007646  d :     0.050886
      dxz     :     0.005026
      dyz     :     0.014347
      dx2y2   :     0.011614
      dxy     :     0.012253
  2 O s       :     3.829937  s :     3.829937
      pz      :     1.706637  p :     4.654835
      px      :     1.526468
      py      :     1.421730
      dz2     :     0.008799  d :     0.049076
      dxz     :     0.010798
      dyz     :     0.005509
      dx2y2   :     0.014982
      dxy     :     0.008987
  3 C s       :     3.191780  s :     3.191780
      pz      :     1.043465  p :     2.823351
      px      :     0.969245
      py      :     0.810641
      dz2     :     0.015815  d :     0.076512
      dxz     :     0.015584
      dyz     :     0.010545
      dx2y2   :     0.013218
      dxy     :     0.021350
  4 H s       :     0.592274  s :     0.592274
      pz      :     0.009216  p :     0.043212
      px      :     0.008382
      py      :     0.025614
  5 C s       :     3.233290  s :     3.233290
      pz      :     0.965156  p :     3.045229
      px      :     1.002493
      py      :     1.077580
      dz2     :     0.012822  d :     0.051557
      dxz     :     0.012992
      dyz     :     0.004898
      dx2y2   :     0.007711
      dxy     :     0.013134
  6 H s       :     0.831085  s :     0.831085
      pz      :     0.002984  p :     0.014869
      px      :     0.003756
      py      :     0.008128
  7 N s       :     3.597348  s :     3.597348
      pz      :     1.375922  p :     4.026490
      px      :     1.522047
      py      :     1.128521
      dz2     :     0.014520  d :     0.052390
      dxz     :     0.006310
      dyz     :     0.008495
      dx2y2   :     0.007168
      dxy     :     0.015896
  8 H s       :     0.868520  s :     0.868520
      pz      :     0.007260  p :     0.014734
      px      :     0.004334
      py      :     0.003141
  9 H s       :     0.876152  s :     0.876152
      pz      :     0.003018  p :     0.014667
      px      :     0.006200
      py      :     0.005449
 10 H s       :     0.828761  s :     0.828761
      pz      :     0.007072  p :     0.014320
      px      :     0.004695
      py      :     0.002553
 11 H s       :     0.694688  s :     0.694688
      pz      :     0.007637  p :     0.026845
      px      :     0.009584
      py      :     0.009624
 12 H s       :     0.699827  s :     0.699827
      pz      :     0.013272  p :     0.026505
      px      :     0.008079
      py      :     0.005154


                     *******************************
                     * LOEWDIN POPULATION ANALYSIS *
                     *******************************

----------------------
LOEWDIN ATOMIC CHARGES
----------------------
   0 C :    0.141931
   1 O :   -0.215340
   2 O :   -0.173316
   3 C :   -0.059884
   4 H :    0.176526
   5 C :   -0.197678
   6 H :    0.090523
   7 N :   -0.264062
   8 H :    0.072278
   9 H :    0.067885
  10 H :    0.088889
  11 H :    0.137552
  12 H :    0.134696

-------------------------------
LOEWDIN REDUCED ORBITAL CHARGES
-------------------------------
  0 C s       :     2.857041  s :     2.857041
      pz      :     0.798137  p :     2.688648
      px      :     0.895727
      py      :     0.994783
      dz2     :     0.030738  d :     0.312380
      dxz     :     0.039684
      dyz     :     0.049485
      dx2y2   :     0.079666
      dxy     :     0.112807
  1 O s       :     3.556797  s :     3.556797
      pz      :     1.412161  p :     4.580178
      px      :     1.700883
      py      :     1.467134
      dz2     :     0.011425  d :     0.078364
      dxz     :     0.005697
      dyz     :     0.020045
      dx2y2   :     0.023687
      dxy     :     0.017511
  2 O s       :     3.477762  s :     3.477762
      pz      :     1.679857  p :     4.622058
      px      :     1.546170
      py      :     1.396031
      dz2     :     0.011647  d :     0.073496
      dxz     :     0.015689
      dyz     :     0.006664
      dx2y2   :     0.026417
      dxy     :     0.013079
  3 C s       :     2.881670  s :     2.881670
      pz      :     1.067213  p :     3.031263
      px      :     1.031877
      py      :     0.932173
      dz2     :     0.029644  d :     0.146951
      dxz     :     0.029443
      dyz     :     0.017607
      dx2y2   :     0.024826
      dxy     :     0.045431
  4 H s       :     0.690282  s :     0.690282
      pz      :     0.026663  p :     0.133193
      px      :     0.024891
      py      :     0.081639
  5 C s       :     2.911029  s :     2.911029
      pz      :     1.042520  p :     3.200526
      px      :     1.060347
      py      :     1.097659
      dz2     :     0.022095  d :     0.086123
      dxz     :     0.024017
      dyz     :     0.006786
      dx2y2   :     0.011707
      dxy     :     0.021518
  6 H s       :     0.863781  s :     0.863781
      pz      :     0.007862  p :     0.045696
      px      :     0.010976
      py      :     0.026857
  7 N s       :     3.190529  s :     3.190529
      pz      :     1.352199  p :     3.992862
      px      :     1.491879
      py      :     1.148784
      dz2     :     0.020589  d :     0.080671
      dxz     :     0.008591
      dyz     :     0.013931
      dx2y2   :     0.012227
      dxy     :     0.025333
  8 H s       :     0.883803  s :     0.883803
      pz      :     0.022897  p :     0.043919
      px      :     0.012802
      py      :     0.008220
  9 H s       :     0.888076  s :     0.888076
      pz      :     0.007923  p :     0.044039
      px      :     0.019248
      py      :     0.016868
 10 H s       :     0.866655  s :     0.866655
      pz      :     0.022722  p :     0.044456
      px      :     0.014455
      py      :     0.007279
 11 H s       :     0.777371  s :     0.777371
      pz      :     0.021545  p :     0.085077
      px      :     0.032233
      py      :     0.031299
 12 H s       :     0.781009  s :     0.781009
      pz      :     0.045417  p :     0.084295
      px      :     0.023940
      py      :     0.014937


                      *****************************
                      * MAYER POPULATION ANALYSIS *
                      *****************************

  NA   - Mulliken gross atomic population
  ZA   - Total nuclear charge
  QA   - Mulliken gross atomic charge
  VA   - Mayer's total valence
  BVA  - Mayer's bonded valence
  FA   - Mayer's free valence

  ATOM       NA         ZA         QA         VA         BVA        FA
  0 C      5.3858     6.0000     0.6142     3.9607     3.6841     0.2765
  1 O      8.4360     8.0000    -0.4360     2.3239     1.9352     0.3887
  2 O      8.5338     8.0000    -0.5338     2.2237     1.8684     0.3553
  3 C      6.0916     6.0000    -0.0916     3.8654     3.5911     0.2743
  4 H      0.6355     1.0000     0.3645     0.9019     0.8598     0.0421
  5 C      6.3301     6.0000    -0.3301     3.9504     3.7023     0.2480
  6 H      0.8460     1.0000     0.1540     0.9641     0.9191     0.0450
  7 N      7.6762     7.0000    -0.6762     3.0366     2.7085     0.3281
  8 H      0.8833     1.0000     0.1167     0.9654     0.9190     0.0464
  9 H      0.8908     1.0000     0.1092     0.9642     0.9173     0.0470
 10 H      0.8431     1.0000     0.1569     0.9470     0.8998     0.0472
 11 H      0.7215     1.0000     0.2785     0.9095     0.8653     0.0443
 12 H      0.7263     1.0000     0.2737     0.9116     0.8666     0.0451

  Mayer bond orders larger than 0.100000
B(  0-C ,  1-O ) :   1.8120 B(  0-C ,  2-O ) :   1.0277 B(  0-C ,  3-C ) :   0.8733 
B(  2-O ,  4-H ) :   0.7541 B(  3-C ,  5-C ) :   0.9350 B(  3-C ,  7-N ) :   0.8898 
B(  3-C , 10-H ) :   0.9126 B(  5-C ,  6-H ) :   0.9173 B(  5-C ,  8-H ) :   0.9318 
B(  5-C ,  9-H ) :   0.9309 B(  7-N , 11-H ) :   0.8667 B(  7-N , 12-H ) :   0.8657 



----------------------------------
MP2 DERIVATIVE INTEGRAL GENERATION
----------------------------------

Input SCF Electron Density              ... 5.scfp
Input Correlated Electron Density       ... 5.pmp2re
Input Energy Weighted Density           ... 5.wmp2.tmp
Input Wavefunction Amplitudes           ... 5.mp2tsaa.tmp

Nuclear repulsion gradient              ... done (  0.0 sec)
HCore & Overlap gradient  (SHARK)       ... done (  0.0 sec)
Analytic two-electron gradient terms    ... 
  Batch handling in the gradient evaluation:
  General contraction                   ... not used
  Memory available                      ... 4089.1 MB
  Memory per occupied orbital in Q2     ...    1.9 MB
  Memory per occupied orbital in Q3     ...    0.0 MB
  Total memory requirement per |i>      ...    2.0 MB
  Number of orbitals treated per batch  ...     18
  Number of batches to be done          ...      1
done (  3.5 sec)

---------------------------------------
MP2 TOTAL ENERGY:     -322.820210823 Eh
---------------------------------------

The final MP2 gradient
  0:  -0.00009526   0.00008773  -0.00005095
  1:   0.00005079  -0.00006045  -0.00000302
  2:   0.00003336  -0.00001279   0.00007098
  3:  -0.00006300   0.00006942  -0.00002843
  4:   0.00000200  -0.00001566  -0.00004169
  5:   0.00004261  -0.00003977   0.00001345
  6:  -0.00001988  -0.00000015  -0.00001308
  7:   0.00004052  -0.00004042   0.00003637
  8:  -0.00000917   0.00002623  -0.00000138
  9:  -0.00000301   0.00000050   0.00001857
 10:   0.00003145  -0.00002006   0.00002023
 11:  -0.00002596   0.00000254  -0.00002505
 12:   0.00001554   0.00000288   0.00000400

-----------------------------------
NORM OF THE MP2 GRADIENT:  0.000238
-----------------------------------

Maximum memory used throughout the entire MP2-calculation: 135.6 MB

-------------------------   --------------------
FINAL SINGLE POINT ENERGY      -322.820210822544
-------------------------   --------------------

                                *** OPTIMIZATION RUN DONE ***


------------------------------------------------------------------------------
                              ORCA PROPERTY CALCULATIONS
------------------------------------------------------------------------------

GBWName                                 ... 5.gbw
Number of atoms                         ...     13
Number of basis functions               ...    119
Max core memory                         ...   4096 MB

Electric properties:
Dipole moment                           ... YES
Quadrupole moment                       ...  NO
Static polarizability (Dipole/Dipole)   ...  NO
Static polarizability (Dipole/Quad.)    ...  NO
Static polarizability (Quad./Quad.)     ...  NO
Static polarizability (Velocity)        ...  NO
Static hyperpolarizability              ...  NO

Atomic electric properties:
Dipole moment                           ...  NO
Quadrupole moment                       ...  NO
Static polarizability                   ...  NO

Choice of electric origin               ... Center of mass
Position of electric origin             ...    -9.708489     0.068874    -3.889100

General magnetic properties:
Magnetizability                         ...  NO

EPR properties:
g-Tensor (aka g-matrix)                 ...  NO
Zero-Field splitting spin-orbit         ...  NO
Zero-field splitting spin-spin          ...  NO
Hyperfine couplings                     ...  NO (   0 nuclei)
Quadrupole couplings                    ...  NO (   0 nuclei)
Contact density                         ...  NO (   0 nuclei)

NMR properties:
Chemical shifts                         ...  NO (   0 nuclei)
Spin-rotation constants                 ...  NO (   0 nuclei)
Spin-spin couplings                     ...  NO (   0 nuclei,    0 pairs)

Choice of magnetic origin               ... GIAO
Position of magnetic origin             ...     0.000000     0.000000     0.000000

Properties with geometric perturbations:
SCF Hessian                             ...  NO
IR spectrum                             ...  NO
VCD spectrum                            ...  NO
X-ray spectroscopy properties:
SCF XES/XAS/RIXS spectra                ...  NO

SCF SOC stabilization energy            ...  NO
Diagonal Born-Oppenheimer correction    ...  NO

-------------
DIPOLE MOMENT
-------------

Method             : SCF
Type of density    : Electron Density
Multiplicity       :   1
Irrep              :   0
Energy             :  -321.8784196583076778 Eh
Basis              : AO
                                X                 Y                 Z
Electronic contribution:      4.224460440       3.709803855       2.335310728
Nuclear contribution   :     -5.214448520      -5.771355468      -2.532625273
                        -----------------------------------------
Total Dipole Moment    :     -0.989988079      -2.061551613      -0.197314545
                        -----------------------------------------
Magnitude (a.u.)       :      2.295431219
Magnitude (Debye)      :      5.834522481



--------------------
Rotational spectrum 
--------------------
 
Rotational constants in cm-1:             0.161465             0.116008             0.071840 
Rotational constants in MHz :          4840.590964          3477.819624          2153.701021 

Dipole components along the rotational axes: 
x,y,z [a.u.] :     2.161305     0.761991     0.130903 
x,y,z [Debye]:     5.493600     1.936828     0.332730 

 

-------------
DIPOLE MOMENT
-------------

Method             : MP2
Type of density    : Electron Density
Multiplicity       :   1
Level              : Unrelaxed density
Irrep              :   0
Energy             :     0.0000000000000000 Eh
Basis              : AO
                                X                 Y                 Z
Electronic contribution:      4.240672800       3.752549864       2.332390486
Nuclear contribution   :     -5.214448520      -5.771355468      -2.532625273
                        -----------------------------------------
Total Dipole Moment    :     -0.973775720      -2.018805603      -0.200234787
                        -----------------------------------------
Magnitude (a.u.)       :      2.250313131
Magnitude (Debye)      :      5.719841415



--------------------
Rotational spectrum 
--------------------
 
Rotational constants in cm-1:             0.161465             0.116008             0.071840 
Rotational constants in MHz :          4840.590964          3477.819624          2153.701021 

Dipole components along the rotational axes: 
x,y,z [a.u.] :     2.121256     0.740777     0.124220 
x,y,z [Debye]:     5.391805     1.882905     0.315743 

 

-------------
DIPOLE MOMENT
-------------

Method             : MP2
Type of density    : Electron Density
Multiplicity       :   1
Level              : Relaxed density
Irrep              :   0
Energy             :     0.0000000000000000 Eh
Basis              : AO
                                X                 Y                 Z
Electronic contribution:      4.335298600       3.920377299       2.335321249
Nuclear contribution   :     -5.214448520      -5.771355468      -2.532625273
                        -----------------------------------------
Total Dipole Moment    :     -0.879149920      -1.850978168      -0.197304024
                        -----------------------------------------
Magnitude (a.u.)       :      2.058629068
Magnitude (Debye)      :      5.232619248



--------------------
Rotational spectrum 
--------------------
 
Rotational constants in cm-1:             0.161465             0.116008             0.071840 
Rotational constants in MHz :          4840.590964          3477.819624          2153.701021 

Dipole components along the rotational axes: 
x,y,z [a.u.] :     1.940127     0.681747     0.095302 
x,y,z [Debye]:     4.931410     1.732864     0.242237 

 

Dipole moment calculation done in   0.0 sec 

Maximum memory used throughout the entire PROP-calculation: 5.5 MB

--------------------------------
SUGGESTED CITATIONS FOR THIS RUN
--------------------------------

Below you find a list of papers that are relevant to this ORCA run
We neither can nor want to force you to cite these papers, but we appreciate if you do
You receive ORCA, which is the product of decades of hard work by many enthusiastic individuals, for free
The only thing we kindly ask in return is that you cite our papers,
We deeply appreciate it, if you show your appreciation for ORCA by not just citing the generic ORCA reference.

Please note that relegating all ORCA citations to the supporting information does *not* help us.
SI sections are not indexed - citations you put there will not count into any citation statistics
But we need these citations in order to attract the funding resources that allow us to do what we are doing

Therefore, if you are a happy ORCA user, please consider citing a few of the papers listed below in the main body of your paper

In addition to the list printed below, the program has created the file 5.bibtex that contains the list in bibtex format
You can import this file easily into all common literature databanks and citation aid programs


List of essential papers. We consider these as the minimum necessary citations

  1. Neese, F.
     Software update: the ORCA program system, version 6.0
     WIRES Comput. Molec. Sci. 2025 15(1), e70019
     doi.org/10.1002/wcms.7019

List of papers to cite with high priority. The work reported in these papers was absolutely
necessary for this run to complete.
Our perspective: the developers of density functionals and basis sets usually get cited in chemistry papers
Good! But without the algorithms to do something with them, the functionals or basis sets would not do anything.
Hence, in our opinion, the algorithm design and method developments papers are equally worthy of getting cited

  1. Neese, F.
     The SHARK Integral Generation and Digestion System
     J. Comp. Chem. 2022 44(3), 381
     doi.org/10.1002/jcc.26942

List of suggested additional citations. These are papers that are important in the 'surrounding' of 
of this run, or papers that preceded the highly important papers. If you like your results we are grateful for a citation.

  1. Neese, F.
     The ORCA program system
     WIRES Comput. Molec. Sci. 2012 2(1), 73-78
     doi.org/10.1002/wcms.81
  2. Neese, F.
     Software update: the ORCA program system, version 4.0
     WIRES Comput. Molec. Sci. 2018 8(1), 1-6
     doi.org/10.1002/wcms.1327
  3. Neese, F.; Wennmohs, F.; Becker, U.; Riplinger, C.
     The ORCA quantum chemistry program package
     J. Chem. Phys. 2020 152(22), 224108
     doi.org/10.1063/5.0004608
  4. Neese, F.
     Software update: The ORCA program system—Version 5.0
     WIRES Comput. Molec. Sci. 2022 12(1), e1606
     doi.org/10.1002/wcms.1606

List of optional additional citations

  1. Neese, F.
     Approximate second-order SCF convergence for spin unrestricted wavefunctions
     Chem. Phys. Lett. 2000 325(1-3), 93-98
     doi.org/10.1016/s0009-2614(00)00662-x

Timings for individual modules:

Sum of individual times          ...      140.001 sec (=   2.333 min)
Startup calculation              ...        2.129 sec (=   0.035 min)   1.5 %
SCF iterations                   ...       36.294 sec (=   0.605 min)  25.9 %
Property calculations            ...        0.034 sec (=   0.001 min)   0.0 %
MP2 module                       ...      101.536 sec (=   1.692 min)  72.5 %
Geometry relaxation              ...        0.008 sec (=   0.000 min)   0.0 %
                             ****ORCA TERMINATED NORMALLY****
TOTAL RUN TIME: 0 days 0 hours 2 minutes 20 seconds 174 msec
