
                                 *****************
                                 * O   R   C   A *
                                 *****************

                                            #,                                       
                                            ###                                      
                                            ####                                     
                                            #####                                    
                                            ######                                   
                                           ########,                                 
                                     ,,################,,,,,                         
                               ,,#################################,,                 
                          ,,##########################################,,             
                       ,#########################################, ''#####,          
                    ,#############################################,,   '####,        
                  ,##################################################,,,,####,       
                ,###########''''           ''''###############################       
              ,#####''   ,,,,##########,,,,          '''####'''          '####       
            ,##' ,,,,###########################,,,                        '##       
           ' ,,###''''                  '''############,,,                           
         ,,##''                                '''############,,,,        ,,,,,,###''
      ,#''                                            '''#######################'''  
     '                                                          ''''####''''         
             ,#######,   #######,   ,#######,      ##                                
            ,#'     '#,  ##    ##  ,#'     '#,    #''#        ,####,    ,#,          
            ##       ##  ##   ,#'  ##            #'  '#       #'       ,# #          
            ##       ##  #######   ##           ,######,      #####,      #          
            '#,     ,#'  ##    ##  '#,     ,#' ,#      #,     #,   #      #          
             '#######'   ##     ##  '#######'  #'      '#     '####' #    #          



                #########################################################
                #                        -***-                          #
                #          Department of theory and spectroscopy        #
                #                                                       #
                #                      Frank Neese                      #
                #                                                       #
                #     Directorship, Architecture, Infrastructure        #
                #                    SHARK, DRIVERS                     #
                #        Core code/Algorithms in most modules           #
                #                                                       #
                #        Max Planck Institute fuer Kohlenforschung      #
                #                Kaiser Wilhelm Platz 1                 #
                #                 D-45470 Muelheim/Ruhr                 #
                #                      Germany                          #
                #                                                       #
                #                  All rights reserved                  #
                #                        -***-                          #
                #########################################################


                         Program Version 6.1.0  -  RELEASE   -
                                (GIT: $679e74b$)
                          ($2025-06-10 18:02:51 +0200$)


 With contributions from (in alphabetic order):
[Max-Planck-Institut fuer Kohlenforschung]                               
  Daniel Aravena         : Magnetic Suceptibility                        
  Michael Atanasov       : Ab Initio Ligand Field Theory (pilot matlab implementation)
  Alexander A. Auer      : GIAO ZORA, VPT2 properties, NMR spectrum      
  Ute Becker             : All parallelization in ORCA, NUMFREQ, NUMCALC 
  Giovanni Bistoni       : ED, misc. LED, open-shell LED, HFLD           
  Dmytro Bykov           : pre 5.0 version of the SCF Hessian            
  Marcos Casanova-Páez   : Triplet and SCS-CIS(D). UHF-(DLPNO)-IP/EA/STEOM-CCSD. UHF-CVS-IP/STEOM-CCSD   
  Vijay G. Chilkuri      : MRCI spin determinant printing, contributions to CSF-ICE 
  Pauline Colinet        : FMM embedding                                 
  Dipayan Datta          : RHF DLPNO-CCSD density                        
  Achintya Kumar Dutta   : EOM-CC, STEOM-CC                              
  Nicolas Foglia         : Exact transition moments, OPA infrastructure, MCD improvements    
  Dmitry Ganyushin       : Spin-Orbit,Spin-Spin,Magnetic field MRCI      
  Miquel Garcia-Rates    : C-PCM and meta-GGA Hessian, CCSD/C-PCM, Gaussian charge scheme 
  Tiago L. C. Gouveia    : GS-ROHF, GS-ROCIS                             
  Yang Guo               : DLPNO-NEVPT2, F12-NEVPT2, CIM, IAO-localization        
  Andreas Hansen         : Spin unrestricted coupled pair/coupled cluster methods 
  Ingolf Harden          : AUTO-CI MPn and infrastructure                
  Benjamin Helmich-Paris : MC-RPA, TRAH-(SCF,CASSCF), AVAS, COSX integrals, SCF dyn. polar., MC-PDFT, srDFT 
  Lee Huntington         : MR-EOM, pCC                                   
  Robert Izsak           : Overlap fitted RIJCOSX, COSX-SCS-MP3, EOM     
  Riya Kayal             : Wick's Theorem for AUTO-CI, AUTO-CI UHF-CCSDT 
  Emily Kempfer          : AUTO-CI RHF CISDT and CCSDT, approximate NEVPT4
  Christian Kollmar      : KDIIS, OOCD, Brueckner-CCSD(T), CCSD density, CASPT2, CASPT2-K, improved NEVPT2 
  Axel Koslowski         : Symmetry handling                             
  Simone Kossmann        : meta-GGA functionals, TD-DFT gradient, OOMP2, (MP2 Hessian; deprecated post 5.0) 
  Lucas Lang             : DCDCAS, Hyperfine gauge corrections, ICE-SOC+SSC
  Marvin Lechner         : AUTO-CI (C++ implementation), FIC-MRCC        
  Spencer Leger          : CASSCF response                               
  Dagmar Lenk            : GEPOL surface, SMD, ORCA-2-JSON               
  Dimitrios Liakos       : Extrapolation schemes; Compound Job, Property file
  Dimitrios Manganas     : Further ROCIS development; embedding schemes. LFT, Crystal Embedding 
  Dimitrios Pantazis     : SARC Basis sets                               
  Anastasios Papadopoulos: AUTO-CI, single reference methods and gradients 
  Taras Petrenko         : pre 6.0 DFT Hessian and TD-DFT gradient,  ECA, NRVS 
  Petra Pikulova         : Analytic Raman intensities                    
  Peter Pinski           : DLPNO-MP2, DLPNO-MP2 Gradient                 
  Shashank Vittal Rao    : ES-AILFT, MagRelax                            
  Christoph Reimann      : Effective Core Potentials                     
  Marius Retegan         : Local ZFS, SOC                                
  Christoph Riplinger    : Optimizer, TS searches, QM/MM, DLPNO-CCSD(T), (RO)-DLPNO pert. Triples 
  Michael Roemelt        : Original ROCIS implementation, recursive CI coupling coefficients
  Masaaki Saitow         : Open-shell DLPNO-CCSD energy and density      
  Barbara Sandhoefer     : DKH picture change effects                    
  Yorick L. A. Schmerwitz: GMF and freeze-and-release deltaSCF, NEB S-IDPP initial path                    
  Kantharuban Sivalingam : CASSCF convergence/infrastructure, NEVPT2, NEVPT3, NEVPT4(SD), FIC-MRCI and CEPA variants
  Bernardo de Souza      : ESD, SOC TD-DFT                               
  Georgi L. Stoychev     : AutoAux, RI-MP2 NMR, DLPNO-MP2 response, X2C  
  Van Anh Tran           : RI-MP2 g-tensors                              
  Willem Van den Heuvel  : Paramagnetic NMR                              
  Zikuan Wang            : NOTCH, Electric field optimization            
  Frank Wennmohs         : Technical directorship and infrastructure     
  Hang Xu                : AUTO-CI-Response properties                   
                                                                         
[FACCTs GmbH]                                                            
  Markus Bursch, Nicolas Foglia, Miquel Garcia-Rates, Ingolf Harden, Hagen Neugebauer, Anastasios Papadopoulos, 
  Christoph Riplinger, Bernardo de Souza, Georgi L. Stoychev                                                    
                                                                 
  APM, various basis sets, CI-OPT, improved COSX, DLPNO-Multilevel,           
  DOCKER, DRACO, updates on ESD, Fragmentator, GOAT, IRC, LR-CPCM, L-BFGS, MBIS, meta-GGA TD-DFT gradient, ML-optimized integration grids, 
  MM, NACMEs, nearIR, NEB, NEB-TS, NL-DFT gradient (VV10), 2- and 3-layer-ONIOM, interface openCOSMO-RS, QMMM,   
  Crystal-QMMM, RESP, rigid body optimization, SF, symmetry and pop. for TD-DFT, various functionals, SOLVATOR                                   
                                                                         
[Other institutions]                                                     
  V. Asgeirsson          : NEB                                           
  Christoph Bannwarth    : sTDA-DFT, sTD-DFT, PBEh-3c, B97-3c, D3        
  Giovanni Bistoni       : ETS/NOCV, ADLD/ADEX, COVALED                  
  Martin Brehm           : Molecular dynamics                            
  Ronald Cardenas        : ETS/NOCV                                      
  Martina Colucci        : COVALED                                       
  Sebastian Ehlert       : rSCAN, r2SCAN, r2SCAN-3c, D4, dhf basis sets  
  Marvin Friede          : D4 for Fr, Ra, Ac-Lr                          
  Lars Goerigk           : TD-DFT with DH, B97 family of functionals     
  Stefan Grimme          : VdW corrections, initial TS optimization, DFT functionals, gCP, sTDA/sTD-DF 
  Waldemar Hujo          : DFT-NL                                        
  H. Jonsson             : NEB                                           
  Holger Kruse           : gCP                                           
  Marcel Mueller         : wB97X-3c, vDZP basis set                      
  Hagen Neugebauer       : wr2SCAN, Native XTB                           
  Gianluca Regni         : ADLD/ADEX                                     
  Tobias Risthaus        : pre 6.0 range-separated hybrid DFT and stability analysis
  Lukas Wittmann         : regularized MP2, r2SCAN double-hybrids, wr2SCAN        
                                                                         
We gratefully acknowledge several colleagues who have allowed us to      
interface, adapt or use parts of their codes:                            
  Ed Valeev, F. Pavosevic, A. Kumar             : LibInt (2-el integral package), F12 methods 
  Garnet Chan, S. Sharma, J. Yang, R. Olivares  : DMRG                   
  Ulf Ekstrom                                   : XCFun DFT Library      
  Mihaly Kallay                                 : mrcc  (arbitrary order and MRCC methods)
  Frank Weinhold                                : gennbo (NPA and NBO analysis)           
  Simon Mueller                                 : openCOSMO-RS                            
  Christopher J. Cramer and Donald G. Truhlar   : smd solvation model                     
  S Lehtola, MJT Oliveira, MAL Marques          : LibXC Library                           
  Liviu Ungur et al                             : ANISO software                          


 Your calculation uses the libint2 library for the computation of 2-el integrals
 For citations please refer to: http://libint.valeyev.net

 Your ORCA version has been built with support for libXC version: 7.0.0
 For citations please refer to: https://libxc.gitlab.io

 This ORCA versions uses:
   CBLAS   interface :  Fast vector & matrix operations
   LAPACKE interface :  Fast linear algebra routines
   SCALAPACK package :  Parallel linear algebra routines
   Shared memory     :  Shared parallel matrices
   BLAS/LAPACK       :  OpenBLAS 0.3.29  USE64BITINT DYNAMIC_ARCH NO_AFFINITY Haswell SINGLE_THREADED
        Core in use  :  Haswell
   Copyright (c) 2011-2014, The OpenBLAS Project


  ***********************************
  * Starting time: Thu Aug 14 01:10:01 2025
  * Host name:     CHEMLAB02
  * Process ID:    1544095
  * Working dir.:  /home/vivek/mm-project/vivek/MP2/l/3
  ***********************************



***************************************
The coordinates will be read from file: /home/vivek/mm-project/vivek/xtb-goat/l/L_CONF/3.xyz
***************************************


================================================================================

----- Orbital basis set information -----
Your calculation utilizes the basis: 6-31G**
   H-He, Li-Ne : W. J. Hehre, R. Ditchfield and J.A. Pople, J. Chem. Phys. 56, 2257 (1972).
                 Note: He and Ne are unpublished basis sets taken from the Gaussian program.
                 Note: Li and B from J. D. Dill and J. A. Pople, J. Chem. Phys. 62, 2921 (1975).
   Na - Ar     : M. M. Francl, W. J. Pietro, W. J. Hehre, J. S. Binkley, M. S. Gordon, 
                 D. J. DeFrees and J. A. Pople, J. Chem. Phys. 77, 3654 (1982).
   K - Zn      : V. A. Rassolov, J. A. Pople, M. A. Ratner, and T. L. Windus, J. Chem. Phys. 109, 1223 (1998).

================================================================================
                                        WARNINGS
                       Please study these warnings very carefully!
================================================================================


WARNING: No MP2 level density has been requested!
         To calculate MP2 level properties use
         %mp2 Density relaxed end
         or
         %mp2 Density unrelaxed end

WARNING: Post HF methods need fully converged wavefunctions
  ===> : Setting SCFConvForced true
         You can overwrite this default with %scf ConvForced false 


================================================================================
                                       INPUT FILE
================================================================================
NAME = 3.inp
|  1> ! MP2 6-31G** 
|  2> 
|  3> * xyzfile 0 1 /home/vivek/mm-project/vivek/xtb-goat/l/L_CONF/3.xyz
|  4> 
|  5>                          ****END OF INPUT****
================================================================================

                       ****************************
                       * Single Point Calculation *
                       ****************************

---------------------------------
CARTESIAN COORDINATES (ANGSTROEM)
---------------------------------
  C     -8.661327    6.230895   -1.953731
  C     -9.441935    6.927387   -0.848331
  H     -7.206674    7.648573   -2.169040
  H     -6.855040    6.492578   -1.070017
  C     -8.702401    4.710144   -1.719536
  O    -10.733371    7.103156   -1.150393
  H     -9.271766    2.048457   -2.031217
  N     -7.272175    6.653220   -1.982386
  C    -10.071833    4.053650   -1.916087
  H     -7.981053    4.266609   -2.407943
  H     -8.351547    4.519124   -0.701850
  C    -10.521687    4.107827   -3.374058
  H     -9.769295    3.661113   -4.020241
  C    -10.003368    2.600933   -1.445724
  H    -11.452031    3.558665   -3.499391
  H    -10.692448    5.131782   -3.693971
  H    -10.812557    4.579767   -1.305163
  H     -9.716492    2.546470   -0.398012
  H    -10.970506    2.117227   -1.560533
  H     -9.119299    6.474992   -2.915693
  H    -11.199766    7.536996   -0.417166
  O     -8.963026    7.297461    0.191969

----------------------------
CARTESIAN COORDINATES (A.U.)
----------------------------
  NO LB      ZA    FRAG     MASS         X           Y           Z
   0 C     6.0000    0    12.011  -16.367536   11.774685   -3.692016
   1 C     6.0000    0    12.011  -17.842672   13.090864   -1.603113
   2 H     1.0000    0     1.008  -13.618639   14.453708   -4.098892
   3 H     1.0000    0     1.008  -12.954149   12.269194   -2.022040
   4 C     6.0000    0    12.011  -16.445154    8.900883   -3.249452
   5 O     8.0000    0    15.999  -20.283131   13.423020   -2.173928
   6 H     1.0000    0     1.008  -17.521099    3.871023   -3.838444
   7 N     7.0000    0    14.007  -13.742420   12.572763   -3.746166
   8 C     6.0000    0    12.011  -19.033006    7.660288   -3.620879
   9 H     1.0000    0     1.008  -15.082004    8.062723   -4.550353
  10 H     1.0000    0     1.008  -15.782136    8.539906   -1.326303
  11 C     6.0000    0    12.011  -19.883106    7.762667   -6.376045
  12 H     1.0000    0     1.008  -18.461293    6.918501   -7.597154
  13 C     6.0000    0    12.011  -18.903626    4.915052   -2.732021
  14 H     1.0000    0     1.008  -21.641202    6.724902   -6.612890
  15 H     1.0000    0     1.008  -20.205798    9.697662   -6.980594
  16 H     1.0000    0     1.008  -20.432771    8.654506   -2.466400
  17 H     1.0000    0     1.008  -18.361510    4.812131   -0.752134
  18 H     1.0000    0     1.008  -20.731251    4.000980   -2.948981
  19 H     1.0000    0     1.008  -17.232978   12.235961   -5.509861
  20 H     1.0000    0     1.008  -21.164491   14.242859   -0.788330
  21 O     8.0000    0    15.999  -16.937665   13.790203    0.362769

--------------------------------
INTERNAL COORDINATES (ANGSTROEM)
--------------------------------
 C      0   0   0     0.000000000000     0.00000000     0.00000000
 C      1   0   0     1.521958861455     0.00000000     0.00000000
 H      1   2   0     2.042592860656    97.13476000     0.00000000
 H      3   1   2     1.633346823378    65.86882924    89.77085247
 C      1   2   3     1.539226044814   109.14388028   144.32803589
 O      2   1   3     1.337887160113   113.03111280   125.00671147
 H      5   1   2     2.739689711253   161.46028967   111.42308057
 N      3   1   2     1.014819426399    41.74640949   124.56450712
 C      5   1   2     1.531326534551   115.33427096    68.74133633
 H      5   1   2     1.091316372035   106.73393828   190.77543189
 H      5   1   2     1.093285403266   107.79973057   306.24231847
 C      9   5   1     1.526755940795   111.76829244    66.76173169
 H     12   9   5     1.087749149421   110.42081382    55.28448377
 C      7   5   1     1.087784077390    65.48748373   271.70203441
 H     12   9   5     1.087578631323   110.13172190   174.98477302
 H     12   9   5     1.086272443155   111.16194154   294.53375130
 H      9   5   1     1.094851364459   109.11066209   306.82786855
 H     14   7   5     1.087640905635   108.40049675   268.99058890
 H     14   7   5     1.087431906593   108.38594772   151.64837826
 H      1   2   3     1.093019903981   108.79071566   264.46348168
 H      6   2   1     0.971269409999   110.59507900   179.12460836
 O      2   1   3     1.203550351150   124.36135221   305.51080214

---------------------------
INTERNAL COORDINATES (A.U.)
---------------------------
 C      0   0   0     0.000000000000     0.00000000     0.00000000
 C      1   0   0     2.876085435244     0.00000000     0.00000000
 H      1   2   0     3.859941109743    97.13476000     0.00000000
 H      3   1   2     3.086578177894    65.86882924    89.77085247
 C      1   2   3     2.908715682897   109.14388028   144.32803589
 O      2   1   3     2.528240330704   113.03111280   125.00671147
 H      5   1   2     5.177263246191   161.46028967   111.42308057
 N      3   1   2     1.917730791277    41.74640949   124.56450712
 C      5   1   2     2.893787771907   115.33427096    68.74133633
 H      5   1   2     2.062289068610   106.73393828   190.77543189
 H      5   1   2     2.066009998386   107.79973057   306.24231847
 C      9   5   1     2.885150601439   111.76829244    66.76173169
 H     12   9   5     2.055547994812   110.42081382    55.28448377
 C      7   5   1     2.055613999108    65.48748373   271.70203441
 H     12   9   5     2.055225762306   110.13172190   174.98477302
 H     12   9   5     2.052757424388   111.16194154   294.53375130
 H      9   5   1     2.068969236177   109.11066209   306.82786855
 H     14   7   5     2.055343443701   108.40049675   268.99058890
 H     14   7   5     2.054948492748   108.38594772   151.64837826
 H      1   2   3     2.065508277448   108.79071566   264.46348168
 H      6   2   1     1.835433187154   110.59507900   179.12460836
 O      2   1   3     2.274380552058   124.36135221   305.51080214

---------------------
BASIS SET INFORMATION
---------------------
There are 4 groups of distinct atoms

 Group   1 Type C   : 10s4p1d contracted to 3s2p1d pattern {631/31/1}
 Group   2 Type H   : 4s1p contracted to 2s1p pattern {31/1}
 Group   3 Type O   : 10s4p1d contracted to 3s2p1d pattern {631/31/1}
 Group   4 Type N   : 10s4p1d contracted to 3s2p1d pattern {631/31/1}

Atom   0C    basis set group =>   1
Atom   1C    basis set group =>   1
Atom   2H    basis set group =>   2
Atom   3H    basis set group =>   2
Atom   4C    basis set group =>   1
Atom   5O    basis set group =>   3
Atom   6H    basis set group =>   2
Atom   7N    basis set group =>   4
Atom   8C    basis set group =>   1
Atom   9H    basis set group =>   2
Atom  10H    basis set group =>   2
Atom  11C    basis set group =>   1
Atom  12H    basis set group =>   2
Atom  13C    basis set group =>   1
Atom  14H    basis set group =>   2
Atom  15H    basis set group =>   2
Atom  16H    basis set group =>   2
Atom  17H    basis set group =>   2
Atom  18H    basis set group =>   2
Atom  19H    basis set group =>   2
Atom  20H    basis set group =>   2
Atom  21O    basis set group =>   3
------------------------------------------------------------------------------
                             ORCA STARTUP CALCULATIONS
------------------------------------------------------------------------------
------------------------------------------------------------------------------
                   ___                                                        
                  /   \      - P O W E R E D   B Y -                         
                 /     \                                                     
                 |  |  |   _    _      __       _____    __    __             
                 |  |  |  | |  | |    /  \     |  _  \  |  |  /  |          
                  \  \/   | |  | |   /    \    | | | |  |  | /  /          
                 / \  \   | |__| |  /  /\  \   | |_| |  |  |/  /          
                |  |  |   |  __  | /  /__\  \  |    /   |      \           
                |  |  |   | |  | | |   __   |  |    \   |  |\   \          
                \     /   | |  | | |  |  |  |  | |\  \  |  | \   \       
                 \___/    |_|  |_| |__|  |__|  |_| \__\ |__|  \__/        
                                                                              
                      - O R C A' S   B I G   F R I E N D -                    
                                      &                                       
                       - I N T E G R A L  F E E D E R -                       
                                                                              
 v1 FN, 2020, v2 2021, v3 2022-2024                                           
------------------------------------------------------------------------------


----------------------
SHARK INTEGRAL PACKAGE
----------------------

Number of atoms                             ...     22
Number of basis functions                   ...    191
Number of shells                            ...     93
Maximum angular momentum                    ...      2
Integral batch strategy                     ... SHARK/LIBINT Hybrid
RI-J (if used) integral strategy            ... SPLIT-RIJ (Revised 2003 algorithm where possible)
Printlevel                                  ...      1
Contraction scheme used                     ... SEGMENTED contraction
Prescreening option                         ... SCHWARTZ
   Thresh                                   ... 1.000e-10
   Tcut                                     ... 1.000e-11
   Tpresel                                  ... 1.000e-11 
Coulomb Range Separation                    ... NOT USED
Exchange Range Separation                   ... NOT USED
Multipole approximations                    ... NOT USED
Finite Nucleus Model                        ... NOT USED
CABS basis                                  ... NOT available
Auxiliary Coulomb fitting basis             ... NOT available
Auxiliary J/K fitting basis                 ... NOT available
Auxiliary Correlation fitting basis         ... NOT available
Auxiliary 'external' fitting basis          ... NOT available

Checking pre-screening integrals            ... done (  0.0 sec) Dimension = 93
   => SHARK Basis and OBASIS are compatible. Storing Pre-screening
Shell pair information
Shell pair cut-off parameter TPreSel        ...   1.0e-11
Total number of shell pairs                 ...      4371
Shell pairs after pre-screening             ...      3883
Total number of primitive shell pairs       ...     20328
Primitive shell pairs kept                  ...     11967
          la=0 lb=0:   1284 shell pairs
          la=1 lb=0:   1451 shell pairs
          la=1 lb=1:    436 shell pairs
          la=2 lb=0:    425 shell pairs
          la=2 lb=1:    245 shell pairs
          la=2 lb=2:     42 shell pairs

Checking whether 4 symmetric matrices of dimension 191 fit in memory
:Max Core in MB      =   4096.00
 MB in use           =      6.37
 MB left             =   4089.63
 MB needed           =      0.56
 Data fit in memory  = YES
Calculating Nuclear repulsion               ... done (  0.0 sec) ENN=    488.507228861595 Eh

Diagonalization of the overlap matrix:
Smallest eigenvalue                        ... 3.030e-03
Time for diagonalization                   ...    0.002 sec
Threshold for overlap eigenvalues          ... 1.000e-07
Number of eigenvalues below threshold      ... 0
Time for construction of square roots      ...    0.001 sec
Total time needed                          ...    0.003 sec

-------------------
DFT GRID GENERATION
-------------------

General Integration Accuracy     IntAcc      ... 4.388
Radial Grid Type                 RadialGrid  ... OptM3 with GC (2021)
Angular Grid (max. ang.)         AngularGrid ... 4 (Lebedev-302)
Angular grid pruning method      GridPruning ... 4 (adaptive)
Weight generation scheme         WeightScheme... mBecke (2022)
Basis function cutoff            BFCut       ... 1.0000e-10
Integration weight cutoff        WCut        ... 1.0000e-14
Partially contracted basis set               ... off
Rotationally invariant grid construction     ... off
Angular grids for H and He will be reduced by one unit

Total number of grid points                  ...    95556
Total number of batches                      ...     1503
Average number of points per batch           ...       63
Average number of grid points per atom       ...     4343
Grids setup in   0.4 sec
Initializing property integral containers    ... done (  0.0 sec)

SHARK setup successfully completed in   0.4 seconds

Maximum memory used throughout the entire STARTUP-calculation: 38.3 MB
-------------------------------------------------------------------------------
                                 ORCA GUESS
                   Start orbitals & Density for SCF / CASSCF
-------------------------------------------------------------------------------

------------
SCF SETTINGS
------------
Hamiltonian:
 Ab initio Hamiltonian  Method          .... Hartree-Fock(GTOs)


General Settings:
 Integral files         IntName         .... 3
 Hartree-Fock type      HFTyp           .... RHF
 Total Charge           Charge          ....    0
 Multiplicity           Mult            ....    1
 Number of Electrons    NEL             ....   72
 Basis Dimension        Dim             ....  191
 Nuclear Repulsion      ENuc            ....    488.5072288616 Eh

Convergence Acceleration:
 AO-DIIS                CNVDIIS         .... on
   Start iteration      DIISMaxIt       ....    12
   Startup error        DIISStart       ....  0.200000
   # of expansion vecs  DIISMaxEq       ....     5
   Bias factor          DIISBfac        ....   1.050
   Max. coefficient     DIISMaxC        ....  10.000
 MO-DIIS                CNVKDIIS        .... off
 Trust-Rad. Augm. Hess. CNVTRAH         .... auto
   Auto Start mean grad. ratio tolernc. ....  1.125000
   Auto Start start iteration           ....    50
   Auto Start num. interpolation iter.  ....    10
   Max. Number of Micro iterations      ....    24
   Max. Number of Macro iterations      .... Maxiter - #DIIS iter
   Number of Davidson start vectors     ....     2
   Converg. threshold    (grad. norm)   ....   5.000e-05
   Grad. Scal. Fac. for Micro threshold ....   0.100
   Minimum threshold for Micro iter.    ....   1.000e-02
   NR start threshold (gradient norm)   ....   1.000e-04
   Initial trust radius                 ....   0.400
   Minimum AH scaling param. (alpha)    ....   1.000
   Maximum AH scaling param. (alpha)    .... 1000.000
   Quad. conv. algorithm                .... NR
   White noise on init. David. guess    .... on
   Maximum white noise                  ....   0.010
   Pseudo random numbers                .... off
   Inactive MOs                         .... canonical
   Orbital update algorithm             .... Taylor
   Preconditioner                       .... Diag
   Full preconditioner red. dimension   ....   250
 SOSCF                 CNVSOSCF           .... on
   Start iteration     SOSCFMaxIt         ....   150
   Startup grad/error  SOSCFStart         ....  0.003300
   Hessian update      SOSCFHessUp        .... L-BFGS
   Autom. constraints  SOSCFAutoConstrain .... off
 Level Shifting         CNVShift        .... on
   Level shift para.    LevelShift      ....    0.2500
   Turn off err/grad.   ShiftErr        ....    0.0010
 Zerner damping         CNVZerner       .... off
 Static damping         CNVDamp         .... on
   Fraction old density DampFac         ....    0.7000
   Max. Damping (<1)    DampMax         ....    0.9800
   Min. Damping (>=0)   DampMin         ....    0.0000
   Turn off err/grad.   DampErr         ....    0.1000

SCF Procedure:
 Maximum # iterations   MaxIter         ....   125
 SCF integral mode      SCFMode         .... Direct
   Integral package                     .... SHARK and LIBINT hybrid scheme
 Reset frequency        DirectResetFreq ....    20
 Integral Threshold     Thresh          ....  1.000e-10 Eh
 Primitive CutOff       TCut            ....  1.000e-11 Eh

Convergence Tolerance:
 Convergence Check Mode ConvCheckMode   .... Total+1el-Energy
 Convergence forced     ConvForced      .... 1
 Energy Change          TolE            ....  1.000e-06 Eh
 1-El. energy change                    ....  1.000e-03 Eh
 Orbital Gradient       TolG            ....  5.000e-05
 Orbital Rotation angle TolX            ....  5.000e-05
 DIIS Error             TolErr          ....  1.000e-06

------------------------------
INITIAL GUESS: MODEL POTENTIAL
------------------------------
Loading Hartree-Fock densities                     ... done
Calculating cut-offs                               ... done
Initializing the effective Hamiltonian             ... done
Setting up the integral package (SHARK)            ... done
Starting the Coulomb interaction                   ... done (   0.1 sec)
Making the grid                                    ... done (   0.1 sec)
Mapping shells                                     ... done
Starting the XC term evaluation                    ... done (   0.0 sec)
Transforming the Hamiltonian                       ... done (   0.0 sec)
Diagonalizing the Hamiltonian                      ... done (   0.0 sec)
Back transforming the eigenvectors                 ... done (   0.0 sec)
Now organizing SCF variables                       ... done
                      ------------------
                      INITIAL GUESS DONE (   0.2 sec)
                      ------------------
             **** ENERGY FILE WAS UPDATED (3.en.tmp) ****
Finished Guess after   0.2 sec
Maximum memory used throughout the entire GUESS-calculation: 11.6 MB

-------------------------------------------------------------------------------------------
                                      ORCA LEAN-SCF
                              memory conserving SCF solver
-------------------------------------------------------------------------------------------

----------------------------------------D-I-I-S--------------------------------------------
Iteration    Energy (Eh)           Delta-E    RMSDP     MaxDP     DIISErr   Damp  Time(sec)
-------------------------------------------------------------------------------------------
               ***  Starting incremental Fock matrix formation  ***
    1    -438.5400392207221216     0.00e+00  2.47e-03  6.40e-02  2.50e-01  0.700   1.9
    2    -438.7037272693498267    -1.64e-01  1.88e-03  4.60e-02  1.55e-01  0.700   1.7
                               ***Turning on AO-DIIS***
    3    -438.7998908706616135    -9.62e-02  1.02e-03  2.29e-02  8.77e-02  0.700   1.7
    4    -438.8602322595534702    -6.03e-02  2.29e-03  4.80e-02  6.17e-02  0.000   1.7
    5    -438.9932965777753111    -1.33e-01  2.70e-04  6.31e-03  5.87e-03  0.000   1.8
    6    -438.9937827257257936    -4.86e-04  1.31e-04  3.36e-03  3.57e-03  0.000   1.6
                              *** Initializing SOSCF ***
---------------------------------------S-O-S-C-F--------------------------------------
Iteration    Energy (Eh)           Delta-E    RMSDP     MaxDP     MaxGrad    Time(sec)
--------------------------------------------------------------------------------------
    7    -438.9938900200282319    -1.07e-04  7.21e-05  2.24e-03  2.10e-03     1.5
               *** Restarting incremental Fock matrix formation ***
    8    -438.9939221066401274    -3.21e-05  3.64e-05  9.00e-04  5.82e-04     1.9
    9    -438.9939296853160045    -7.58e-06  3.84e-05  1.23e-03  4.04e-04     1.4
   10    -438.9939324836910259    -2.80e-06  7.07e-06  2.81e-04  1.04e-04     1.4
   11    -438.9939326882344517    -2.05e-07  2.58e-06  8.38e-05  4.43e-05     1.2
                 **** Energy Check signals convergence ****

               *****************************************************
               *                     SUCCESS                       *
               *           SCF CONVERGED AFTER  11 CYCLES          *
               *****************************************************

             **** ENERGY FILE WAS UPDATED (3.en.tmp) ****

----------------
TOTAL SCF ENERGY
----------------

Total Energy       :       -438.99393272863898 Eh          -11945.63221 eV

Components:
Nuclear Repulsion  :        488.50722886159502 Eh           13292.95750 eV
Electronic Energy  :       -927.50116159023401 Eh          -25238.58971 eV
One Electron Energy:      -1567.53548177145240 Eh          -42654.80899 eV
Two Electron Energy:        640.03432018121839 Eh           17416.21928 eV

Virial components:
Potential Energy   :       -877.61355006788074 Eh          -23881.07879 eV
Kinetic Energy     :        438.61961733924176 Eh           11935.44657 eV
Virial Ratio       :          2.00085339409046

---------------
SCF CONVERGENCE
---------------

  Last Energy change         ...    2.0454e-07  Tolerance :   1.0000e-06
  Last MAX-Density change    ...    8.3761e-05  Tolerance :   1.0000e-05
  Last RMS-Density change    ...    2.5801e-06  Tolerance :   1.0000e-06
  Last DIIS Error            ...    2.1011e-03  Tolerance :   1.0000e-06
  Last Orbital Gradient      ...    4.4254e-05  Tolerance :   5.0000e-05
  Last Orbital Rotation      ...    3.0477e-05  Tolerance :   5.0000e-05


----------------
ORBITAL ENERGIES
----------------

  NO   OCC          E(Eh)            E(eV) 
   0   2.0000     -20.619839      -561.0943 
   1   2.0000     -20.553768      -559.2965 
   2   2.0000     -15.546899      -423.0526 
   3   2.0000     -11.382311      -309.7284 
   4   2.0000     -11.271017      -306.7000 
   5   2.0000     -11.226396      -305.4858 
   6   2.0000     -11.225802      -305.4696 
   7   2.0000     -11.211067      -305.0686 
   8   2.0000     -11.210689      -305.0583 
   9   2.0000      -1.469619       -39.9904 
  10   2.0000      -1.362646       -37.0795 
  11   2.0000      -1.196497       -32.5583 
  12   2.0000      -1.093307       -29.7504 
  13   2.0000      -0.992918       -27.0187 
  14   2.0000      -0.932760       -25.3817 
  15   2.0000      -0.904230       -24.6053 
  16   2.0000      -0.809272       -22.0214 
  17   2.0000      -0.767678       -20.8896 
  18   2.0000      -0.713246       -19.4084 
  19   2.0000      -0.697532       -18.9808 
  20   2.0000      -0.666245       -18.1295 
  21   2.0000      -0.637792       -17.3552 
  22   2.0000      -0.620087       -16.8734 
  23   2.0000      -0.604955       -16.4617 
  24   2.0000      -0.596967       -16.2443 
  25   2.0000      -0.580356       -15.7923 
  26   2.0000      -0.544127       -14.8065 
  27   2.0000      -0.537891       -14.6368 
  28   2.0000      -0.531321       -14.4580 
  29   2.0000      -0.506717       -13.7885 
  30   2.0000      -0.487495       -13.2654 
  31   2.0000      -0.465464       -12.6659 
  32   2.0000      -0.463060       -12.6005 
  33   2.0000      -0.454958       -12.3800 
  34   2.0000      -0.449400       -12.2288 
  35   2.0000      -0.399094       -10.8599 
  36   0.0000       0.180132         4.9017 
  37   0.0000       0.217483         5.9180 
  38   0.0000       0.233478         6.3533 
  39   0.0000       0.243934         6.6378 
  40   0.0000       0.260895         7.0993 
  41   0.0000       0.280624         7.6362 
  42   0.0000       0.292446         7.9579 
  43   0.0000       0.300582         8.1792 
  44   0.0000       0.325113         8.8468 
  45   0.0000       0.328929         8.9506 
  46   0.0000       0.332647         9.0518 
*Only the first 10 virtual orbitals were printed.

                    ********************************
                    * MULLIKEN POPULATION ANALYSIS *
                    ********************************

-----------------------
MULLIKEN ATOMIC CHARGES
-----------------------
   0 C :   -0.033400
   1 C :    0.789060
   2 H :    0.270973
   3 H :    0.283030
   4 C :   -0.212871
   5 O :   -0.635868
   6 H :    0.109463
   7 N :   -0.679964
   8 C :   -0.147966
   9 H :    0.145163
  10 H :    0.123464
  11 C :   -0.319414
  12 H :    0.110088
  13 C :   -0.318685
  14 H :    0.113432
  15 H :    0.114990
  16 H :    0.126653
  17 H :    0.112030
  18 H :    0.112211
  19 H :    0.157565
  20 H :    0.370733
  21 O :   -0.590687
Sum of atomic charges:   -0.0000000

--------------------------------
MULLIKEN REDUCED ORBITAL CHARGES
--------------------------------
  0 C s       :     3.199444  s :     3.199444
      pz      :     0.979919  p :     2.763807
      px      :     0.813915
      py      :     0.969973
      dz2     :     0.011461  d :     0.070149
      dxz     :     0.018802
      dyz     :     0.009174
      dx2y2   :     0.017470
      dxy     :     0.013243

  1 C s       :     2.954926  s :     2.954926
      pz      :     0.789933  p :     2.110001
      px      :     0.645673
      py      :     0.674395
      dz2     :     0.035649  d :     0.146013
      dxz     :     0.040380
      dyz     :     0.022914
      dx2y2   :     0.025628
      dxy     :     0.021443

  2 H s       :     0.702985  s :     0.702985
      pz      :     0.006463  p :     0.026043
      px      :     0.004430
      py      :     0.015150

  3 H s       :     0.690876  s :     0.690876
      pz      :     0.014167  p :     0.026093
      px      :     0.006807
      py      :     0.005119

  4 C s       :     3.240009  s :     3.240009
      pz      :     1.076841  p :     2.924737
      px      :     0.975141
      py      :     0.872755
      dz2     :     0.011408  d :     0.048125
      dxz     :     0.010256
      dyz     :     0.005397
      dx2y2   :     0.012698
      dxy     :     0.008366

  5 O s       :     3.837866  s :     3.837866
      pz      :     1.651794  p :     4.772699
      px      :     1.359586
      py      :     1.761318
      dz2     :     0.004935  d :     0.025303
      dxz     :     0.007332
      dyz     :     0.004296
      dx2y2   :     0.005377
      dxy     :     0.003363

  6 H s       :     0.877933  s :     0.877933
      pz      :     0.003870  p :     0.012603
      px      :     0.005056
      py      :     0.003678

  7 N s       :     3.605838  s :     3.605838
      pz      :     1.486265  p :     4.039370
      px      :     1.237185
      py      :     1.315921
      dz2     :     0.012205  d :     0.034756
      dxz     :     0.005027
      dyz     :     0.000200
      dx2y2   :     0.014701
      dxy     :     0.002624

  8 C s       :     3.235319  s :     3.235319
      pz      :     0.953843  p :     2.856952
      px      :     0.956644
      py      :     0.946465
      dz2     :     0.013020  d :     0.055695
      dxz     :     0.011095
      dyz     :     0.009043
      dx2y2   :     0.011101
      dxy     :     0.011437

  9 H s       :     0.842362  s :     0.842362
      pz      :     0.004647  p :     0.012474
      px      :     0.005109
      py      :     0.002717

 10 H s       :     0.864100  s :     0.864100
      pz      :     0.008059  p :     0.012436
      px      :     0.002510
      py      :     0.001868

 11 C s       :     3.247034  s :     3.247034
      pz      :     0.938693  p :     3.030219
      px      :     1.038241
      py      :     1.053285
      dz2     :     0.010719  d :     0.042161
      dxz     :     0.008995
      dyz     :     0.006262
      dx2y2   :     0.007869
      dxy     :     0.008316

 12 H s       :     0.877324  s :     0.877324
      pz      :     0.004363  p :     0.012588
      px      :     0.005193
      py      :     0.003032

 13 C s       :     3.248344  s :     3.248344
      pz      :     1.036334  p :     3.028042
      px      :     1.051412
      py      :     0.940296
      dz2     :     0.011733  d :     0.042299
      dxz     :     0.005961
      dyz     :     0.006052
      dx2y2   :     0.008303
      dxy     :     0.010250

 14 H s       :     0.873889  s :     0.873889
      pz      :     0.001912  p :     0.012679
      px      :     0.007071
      py      :     0.003695

 15 H s       :     0.872265  s :     0.872265
      pz      :     0.002460  p :     0.012745
      px      :     0.002109
      py      :     0.008176

 16 H s       :     0.860859  s :     0.860859
      pz      :     0.003819  p :     0.012488
      px      :     0.005154
      py      :     0.003515

 17 H s       :     0.875323  s :     0.875323
      pz      :     0.008478  p :     0.012647
      px      :     0.002357
      py      :     0.001812

 18 H s       :     0.875141  s :     0.875141
      pz      :     0.001914  p :     0.012648
      px      :     0.007470
      py      :     0.003265

 19 H s       :     0.830252  s :     0.830252
      pz      :     0.007743  p :     0.012183
      px      :     0.002520
      py      :     0.001920

 20 H s       :     0.587837  s :     0.587837
      pz      :     0.018092  p :     0.041431
      px      :     0.011001
      py      :     0.012337

 21 O s       :     3.874122  s :     3.874122
      pz      :     1.422188  p :     4.683937
      px      :     1.752807
      py      :     1.508942
      dz2     :     0.010943  d :     0.032628
      dxz     :     0.007658
      dyz     :     0.008796
      dx2y2   :     0.002045
      dxy     :     0.003186



                     *******************************
                     * LOEWDIN POPULATION ANALYSIS *
                     *******************************

----------------------
LOEWDIN ATOMIC CHARGES
----------------------
   0 C :   -0.025272
   1 C :    0.229946
   2 H :    0.128520
   3 H :    0.134984
   4 C :   -0.100828
   5 O :   -0.209008
   6 H :    0.061975
   7 N :   -0.274747
   8 C :   -0.072187
   9 H :    0.075344
  10 H :    0.065352
  11 C :   -0.178866
  12 H :    0.062209
  13 C :   -0.176863
  14 H :    0.064521
  15 H :    0.062972
  16 H :    0.061758
  17 H :    0.062431
  18 H :    0.062979
  19 H :    0.077805
  20 H :    0.200519
  21 O :   -0.313548

-------------------------------
LOEWDIN REDUCED ORBITAL CHARGES
-------------------------------
  0 C s       :     2.868595  s :     2.868595
      pz      :     1.034114  p :     3.016581
      px      :     0.945493
      py      :     1.036974
      dz2     :     0.021834  d :     0.140097
      dxz     :     0.037553
      dyz     :     0.017987
      dx2y2   :     0.035777
      dxy     :     0.026945

  1 C s       :     2.850122  s :     2.850122
      pz      :     0.988767  p :     2.603623
      px      :     0.879396
      py      :     0.735460
      dz2     :     0.075026  d :     0.316309
      dxz     :     0.093111
      dyz     :     0.046032
      dx2y2   :     0.058143
      dxy     :     0.043997

  2 H s       :     0.790226  s :     0.790226
      pz      :     0.019818  p :     0.081254
      px      :     0.014561
      py      :     0.046875

  3 H s       :     0.783011  s :     0.783011
      pz      :     0.044550  p :     0.082005
      px      :     0.021611
      py      :     0.015844

  4 C s       :     2.894795  s :     2.894795
      pz      :     1.078768  p :     3.114733
      px      :     1.049966
      py      :     0.985998
      dz2     :     0.020350  d :     0.091300
      dxz     :     0.017714
      dyz     :     0.010318
      dx2y2   :     0.025660
      dxy     :     0.017258

  5 O s       :     3.459467  s :     3.459467
      pz      :     1.619681  p :     4.701343
      px      :     1.368798
      py      :     1.712864
      dz2     :     0.007734  d :     0.048197
      dxz     :     0.015035
      dyz     :     0.005497
      dx2y2   :     0.012220
      dxy     :     0.007711

  6 H s       :     0.898282  s :     0.898282
      pz      :     0.012229  p :     0.039743
      px      :     0.015550
      py      :     0.011964

  7 N s       :     3.189132  s :     3.189132
      pz      :     1.450890  p :     4.024209
      px      :     1.270850
      py      :     1.302470
      dz2     :     0.017058  d :     0.061406
      dxz     :     0.010653
      dyz     :     0.000863
      dx2y2   :     0.025262
      dxy     :     0.007570

  8 C s       :     2.872206  s :     2.872206
      pz      :     1.033214  p :     3.090169
      px      :     1.031165
      py      :     1.025790
      dz2     :     0.026219  d :     0.109813
      dxz     :     0.021107
      dyz     :     0.017634
      dx2y2   :     0.022697
      dxy     :     0.022155

  9 H s       :     0.884130  s :     0.884130
      pz      :     0.014642  p :     0.040526
      px      :     0.016351
      py      :     0.009534

 10 H s       :     0.894750  s :     0.894750
      pz      :     0.023736  p :     0.039897
      px      :     0.009063
      py      :     0.007099

 11 C s       :     2.906925  s :     2.906925
      pz      :     1.035796  p :     3.196787
      px      :     1.078474
      py      :     1.082517
      dz2     :     0.020435  d :     0.075154
      dxz     :     0.016754
      dyz     :     0.011907
      dx2y2   :     0.012667
      dxy     :     0.013391

 12 H s       :     0.898029  s :     0.898029
      pz      :     0.013853  p :     0.039763
      px      :     0.015815
      py      :     0.010095

 13 C s       :     2.908514  s :     2.908514
      pz      :     1.075522  p :     3.192993
      px      :     1.082969
      py      :     1.034503
      dz2     :     0.019989  d :     0.075355
      dxz     :     0.009444
      dyz     :     0.011835
      dx2y2   :     0.015572
      dxy     :     0.018514

 14 H s       :     0.895822  s :     0.895822
      pz      :     0.006858  p :     0.039657
      px      :     0.021087
      py      :     0.011712

 15 H s       :     0.896865  s :     0.896865
      pz      :     0.008459  p :     0.040163
      px      :     0.007462
      py      :     0.024241

 16 H s       :     0.898437  s :     0.898437
      pz      :     0.012531  p :     0.039805
      px      :     0.015827
      py      :     0.011447

 17 H s       :     0.897964  s :     0.897964
      pz      :     0.024911  p :     0.039605
      px      :     0.008086
      py      :     0.006608

 18 H s       :     0.897402  s :     0.897402
      pz      :     0.006876  p :     0.039619
      px      :     0.022065
      py      :     0.010677

 19 H s       :     0.881996  s :     0.881996
      pz      :     0.023887  p :     0.040199
      px      :     0.008500
      py      :     0.007813

 20 H s       :     0.679353  s :     0.679353
      pz      :     0.052714  p :     0.120129
      px      :     0.030937
      py      :     0.036478

 21 O s       :     3.548007  s :     3.548007
      pz      :     1.489317  p :     4.708390
      px      :     1.728920
      py      :     1.490153
      dz2     :     0.019393  d :     0.057151
      dxz     :     0.015793
      dyz     :     0.013922
      dx2y2   :     0.003704
      dxy     :     0.004339



                      *****************************
                      * MAYER POPULATION ANALYSIS *
                      *****************************

  NA   - Mulliken gross atomic population
  ZA   - Total nuclear charge
  QA   - Mulliken gross atomic charge
  VA   - Mayer's total valence
  BVA  - Mayer's bonded valence
  FA   - Mayer's free valence

  ATOM       NA         ZA         QA         VA         BVA        FA
  0 C      6.0334     6.0000    -0.0334     3.7561     3.7561    -0.0000
  1 C      5.2109     6.0000     0.7891     3.6621     3.6621    -0.0000
  2 H      0.7290     1.0000     0.2710     0.9060     0.9060     0.0000
  3 H      0.7170     1.0000     0.2830     0.9059     0.9059     0.0000
  4 C      6.2129     6.0000    -0.2129     3.7570     3.7570     0.0000
  5 O      8.6359     8.0000    -0.6359     1.8248     1.8248    -0.0000
  6 H      0.8905     1.0000     0.1095     0.9529     0.9529     0.0000
  7 N      7.6800     7.0000    -0.6800     2.7744     2.7744    -0.0000
  8 C      6.1480     6.0000    -0.1480     3.7916     3.7916     0.0000
  9 H      0.8548     1.0000     0.1452     0.9517     0.9517    -0.0000
 10 H      0.8765     1.0000     0.1235     0.9534     0.9534     0.0000
 11 C      6.3194     6.0000    -0.3194     3.8371     3.8371    -0.0000
 12 H      0.8899     1.0000     0.1101     0.9532     0.9532     0.0000
 13 C      6.3187     6.0000    -0.3187     3.8425     3.8425     0.0000
 14 H      0.8866     1.0000     0.1134     0.9544     0.9544    -0.0000
 15 H      0.8850     1.0000     0.1150     0.9531     0.9531     0.0000
 16 H      0.8733     1.0000     0.1267     0.9477     0.9477    -0.0000
 17 H      0.8880     1.0000     0.1120     0.9535     0.9535    -0.0000
 18 H      0.8878     1.0000     0.1122     0.9542     0.9542    -0.0000
 19 H      0.8424     1.0000     0.1576     0.9409     0.9409     0.0000
 20 H      0.6293     1.0000     0.3707     0.8731     0.8731    -0.0000
 21 O      8.5907     8.0000    -0.5907     1.8934     1.8934    -0.0000

  Mayer bond orders larger than 0.100000
B(  0-C ,  1-C ) :   0.9000 B(  0-C ,  4-C ) :   0.9649 B(  0-C ,  7-N ) :   0.9972 
B(  0-C , 19-H ) :   0.9581 B(  1-C ,  5-O ) :   0.9625 B(  1-C , 21-O ) :   1.8287 
B(  2-H ,  7-N ) :   0.9109 B(  3-H ,  7-N ) :   0.8972 B(  4-C ,  8-C ) :   0.9646 
B(  4-C ,  9-H ) :   0.9627 B(  4-C , 10-H ) :   0.9672 B(  5-O , 20-H ) :   0.8404 
B(  6-H , 13-C ) :   0.9721 B(  8-C , 11-C ) :   0.9729 B(  8-C , 13-C ) :   0.9793 
B(  8-C , 16-H ) :   0.9657 B( 11-C , 12-H ) :   0.9716 B( 11-C , 14-H ) :   0.9770 
B( 11-C , 15-H ) :   0.9753 B( 13-C , 17-H ) :   0.9764 B( 13-C , 18-H ) :   0.9768 


-------
TIMINGS
-------

Total SCF time: 0 days 0 hours 0 min 18 sec 

Total time                  ....      18.998 sec
Sum of individual times     ....      17.877 sec  ( 94.1%)

SCF preparation             ....       0.016 sec  (  0.1%)
Fock matrix formation       ....      17.805 sec  ( 93.7%)
  Startup                   ....       0.001 sec  (  0.0% of F)
  Coulomb+Exchange Fock     ....      18.917 sec  (106.2% of F)
Diagonalization             ....       0.000 sec  (  0.0%)
Density matrix formation    ....       0.004 sec  (  0.0%)
Total Energy calculation    ....       0.001 sec  (  0.0%)
Population analysis         ....       0.003 sec  (  0.0%)
Orbital Transformation      ....       0.006 sec  (  0.0%)
Orbital Orthonormalization  ....       0.000 sec  (  0.0%)
DIIS solution               ....       0.031 sec  (  0.2%)
SOSCF solution              ....       0.011 sec  (  0.1%)
Finished LeanSCF after  19.0 sec

Maximum memory used throughout the entire LEANSCF-calculation: 15.1 MB

------------------------------------------------------------------------------
                                ORCA  MP2 
------------------------------------------------------------------------------

Freezing NCore=18 chemical core electrons

----------
MP2 ENERGY (disk based algorithm)
----------

Dimension of the basis                      ...  191
Memory devoted to MP2                       ... 4096 MB   
Data format for buffers                     ... DOUBLE
Compression type for matrix containers      ... UNCOMPRESSED

-------------------------
SHARK HALF TRANSFORMATION (Exchange order)
-------------------------

Number of basis functions                   ...    191
Number of operators                         ...      1
   Operator  0:    9-  35 (p-index in (p*|q*))
   Operator  0:    9-  35 (q-index in (p*|q*)
Integral generator used                     ... SHARK
Contraction scheme used                     ... SEGMENTED CONTRACTION
MaxCore in resort                           ...   4096 MB

Half transformed integrals for op=   0      ... 3.SHARK_MNPQ0.tmp
Resorted half transformed integrals         ... 3.KAO_aa.tmp

Half trafo (segmented) done. Total time = 11.8 sec. integrals= 10.7 sec trafo=  1.1 sec

----------------------
SHARK INTEGRAL SORTING (Exchange)
----------------------

Input container                             ... 3.SHARK_MNPQ0.tmp
Output container                            ... 3.KAO_aa.tmp
Range of AO-indices                         ...    0 -  190
Range of bra indices i                      ...    9 -   35
Range of ket indices j                      ...    9 -   35
Symmetric i,j range                         ... YES
Number of (i,j) pairs generated             ...  378
Max Core memory in MB                       ...   4096

Available core memory in MB                 ...   4086.20
MB needed for one item                      ...      0.28
Fixed MB needed                             ...      0.00
Number of items                             ...       378
Number of batches                           ...         1
Items treated per batch                     ...       378
Batch   0                                   ...      0-   377 (   378)
   => Closing output file and leaving
done (  0.1 sec)

SHARK half integral transformation done. Total time = 11.9 sec.


Finished integral transformation - now doing MP2 part

OPERATOR COMBINATION   0   0: ij=(  9.. 35,  9.. 35)
  Internal MO  11
  Internal MO  14
  Internal MO  17
  Internal MO  20
  Internal MO  23
  Internal MO  26
  Internal MO  29
  Internal MO  32
  Internal MO  35
-----------------------------------------------
 MP2 CORRELATION ENERGY   :     -1.368905908 Eh
-----------------------------------------------


-------
TIMINGS
-------
Total time                :   12.103 sec
Integral trafo            :   11.950 sec ( 98.7%)
K(i,j)                    :    0.128 sec (  1.1%)
T(i,j)                    :    0.004 sec (  0.0%)

---------------------------------------
MP2 TOTAL ENERGY:     -440.362838637 Eh
---------------------------------------

Maximum memory used throughout the entire MP2-calculation: 116.0 MB

-------------------------   --------------------
FINAL SINGLE POINT ENERGY      -440.362838636966
-------------------------   --------------------


------------------------------------------------------------------------------
                              ORCA PROPERTY CALCULATIONS
------------------------------------------------------------------------------

GBWName                                 ... 3.gbw
Number of atoms                         ...     22
Number of basis functions               ...    191
Max core memory                         ...   4096 MB

Electric properties:
Dipole moment                           ... YES
Quadrupole moment                       ...  NO
Static polarizability (Dipole/Dipole)   ...  NO
Static polarizability (Dipole/Quad.)    ...  NO
Static polarizability (Quad./Quad.)     ...  NO
Static polarizability (Velocity)        ...  NO
Static hyperpolarizability              ...  NO

Atomic electric properties:
Dipole moment                           ...  NO
Quadrupole moment                       ...  NO
Static polarizability                   ...  NO

Choice of electric origin               ... Center of mass
Position of electric origin             ...   -17.731541    10.495440    -2.949144

General magnetic properties:
Magnetizability                         ...  NO

EPR properties:
g-Tensor (aka g-matrix)                 ...  NO
Zero-Field splitting spin-orbit         ...  NO
Zero-field splitting spin-spin          ...  NO
Hyperfine couplings                     ...  NO (   0 nuclei)
Quadrupole couplings                    ...  NO (   0 nuclei)
Contact density                         ...  NO (   0 nuclei)

NMR properties:
Chemical shifts                         ...  NO (   0 nuclei)
Spin-rotation constants                 ...  NO (   0 nuclei)
Spin-spin couplings                     ...  NO (   0 nuclei,    0 pairs)

Choice of magnetic origin               ... GIAO
Position of magnetic origin             ...     0.000000     0.000000     0.000000

Properties with geometric perturbations:
SCF Hessian                             ...  NO
IR spectrum                             ...  NO
VCD spectrum                            ...  NO
X-ray spectroscopy properties:
SCF XES/XAS/RIXS spectra                ...  NO

SCF SOC stabilization energy            ...  NO
Diagonal Born-Oppenheimer correction    ...  NO

-------------
DIPOLE MOMENT
-------------

Method             : SCF
Type of density    : Electron Density
Multiplicity       :   1
Irrep              :   0
Energy             :  -438.9939327286389812 Eh
Basis              : AO
                                X                 Y                 Z
Electronic contribution:      0.712437361      10.877700492       5.336225281
Nuclear contribution   :     -1.332297541     -10.845891699      -5.507624768
                        -----------------------------------------
Total Dipole Moment    :     -0.619860181       0.031808793      -0.171399487
                        -----------------------------------------
Magnitude (a.u.)       :      0.643907002
Magnitude (Debye)      :      1.636681530



--------------------
Rotational spectrum 
--------------------
 
Rotational constants in cm-1:             0.075983             0.033818             0.030284 
Rotational constants in MHz :          2277.898731          1013.840730           907.900015 

Dipole components along the rotational axes: 
x,y,z [a.u.] :    -0.208813    -0.533628    -0.293691 
x,y,z [Debye]:    -0.530760    -1.356375    -0.746503 

 

Dipole moment calculation done in   0.0 sec 

Maximum memory used throughout the entire PROP-calculation: 10.0 MB

--------------------------------
SUGGESTED CITATIONS FOR THIS RUN
--------------------------------

Below you find a list of papers that are relevant to this ORCA run
We neither can nor want to force you to cite these papers, but we appreciate if you do
You receive ORCA, which is the product of decades of hard work by many enthusiastic individuals, for free
The only thing we kindly ask in return is that you cite our papers,
We deeply appreciate it, if you show your appreciation for ORCA by not just citing the generic ORCA reference.

Please note that relegating all ORCA citations to the supporting information does *not* help us.
SI sections are not indexed - citations you put there will not count into any citation statistics
But we need these citations in order to attract the funding resources that allow us to do what we are doing

Therefore, if you are a happy ORCA user, please consider citing a few of the papers listed below in the main body of your paper

In addition to the list printed below, the program has created the file 3.bibtex that contains the list in bibtex format
You can import this file easily into all common literature databanks and citation aid programs


List of essential papers. We consider these as the minimum necessary citations

  1. Neese, F.
     Software update: the ORCA program system, version 6.0
     WIRES Comput. Molec. Sci. 2025 15(1), e70019
     doi.org/10.1002/wcms.7019

List of papers to cite with high priority. The work reported in these papers was absolutely
necessary for this run to complete.
Our perspective: the developers of density functionals and basis sets usually get cited in chemistry papers
Good! But without the algorithms to do something with them, the functionals or basis sets would not do anything.
Hence, in our opinion, the algorithm design and method developments papers are equally worthy of getting cited

  1. Neese, F.
     The SHARK Integral Generation and Digestion System
     J. Comp. Chem. 2022 44(3), 381
     doi.org/10.1002/jcc.26942

List of suggested additional citations. These are papers that are important in the 'surrounding' of 
of this run, or papers that preceded the highly important papers. If you like your results we are grateful for a citation.

  1. Neese, F.
     The ORCA program system
     WIRES Comput. Molec. Sci. 2012 2(1), 73-78
     doi.org/10.1002/wcms.81
  2. Neese, F.
     Software update: the ORCA program system, version 4.0
     WIRES Comput. Molec. Sci. 2018 8(1), 1-6
     doi.org/10.1002/wcms.1327
  3. Neese, F.; Wennmohs, F.; Becker, U.; Riplinger, C.
     The ORCA quantum chemistry program package
     J. Chem. Phys. 2020 152(22), 224108
     doi.org/10.1063/5.0004608
  4. Neese, F.
     Software update: The ORCA program system—Version 5.0
     WIRES Comput. Molec. Sci. 2022 12(1), e1606
     doi.org/10.1002/wcms.1606

List of optional additional citations

  1. Neese, F.
     Approximate second-order SCF convergence for spin unrestricted wavefunctions
     Chem. Phys. Lett. 2000 325(1-3), 93-98
     doi.org/10.1016/s0009-2614(00)00662-x

Timings for individual modules:

Sum of individual times          ...       31.862 sec (=   0.531 min)
Startup calculation              ...        0.448 sec (=   0.007 min)   1.4 %
SCF iterations                   ...       19.261 sec (=   0.321 min)  60.5 %
Property calculations            ...        0.025 sec (=   0.000 min)   0.1 %
MP2 module                       ...       12.128 sec (=   0.202 min)  38.1 %
                             ****ORCA TERMINATED NORMALLY****
TOTAL RUN TIME: 0 days 0 hours 0 minutes 31 seconds 898 msec
