
                                 *****************
                                 * O   R   C   A *
                                 *****************

                                            #,                                       
                                            ###                                      
                                            ####                                     
                                            #####                                    
                                            ######                                   
                                           ########,                                 
                                     ,,################,,,,,                         
                               ,,#################################,,                 
                          ,,##########################################,,             
                       ,#########################################, ''#####,          
                    ,#############################################,,   '####,        
                  ,##################################################,,,,####,       
                ,###########''''           ''''###############################       
              ,#####''   ,,,,##########,,,,          '''####'''          '####       
            ,##' ,,,,###########################,,,                        '##       
           ' ,,###''''                  '''############,,,                           
         ,,##''                                '''############,,,,        ,,,,,,###''
      ,#''                                            '''#######################'''  
     '                                                          ''''####''''         
             ,#######,   #######,   ,#######,      ##                                
            ,#'     '#,  ##    ##  ,#'     '#,    #''#        ,####,    ,#,          
            ##       ##  ##   ,#'  ##            #'  '#       #'       ,# #          
            ##       ##  #######   ##           ,######,      #####,      #          
            '#,     ,#'  ##    ##  '#,     ,#' ,#      #,     #,   #      #          
             '#######'   ##     ##  '#######'  #'      '#     '####' #    #          



                #########################################################
                #                        -***-                          #
                #          Department of theory and spectroscopy        #
                #                                                       #
                #                      Frank Neese                      #
                #                                                       #
                #     Directorship, Architecture, Infrastructure        #
                #                    SHARK, DRIVERS                     #
                #        Core code/Algorithms in most modules           #
                #                                                       #
                #        Max Planck Institute fuer Kohlenforschung      #
                #                Kaiser Wilhelm Platz 1                 #
                #                 D-45470 Muelheim/Ruhr                 #
                #                      Germany                          #
                #                                                       #
                #                  All rights reserved                  #
                #                        -***-                          #
                #########################################################


                         Program Version 6.1.0  -  RELEASE   -
                                (GIT: $679e74b$)
                          ($2025-06-10 18:02:51 +0200$)


 With contributions from (in alphabetic order):
[Max-Planck-Institut fuer Kohlenforschung]                               
  Daniel Aravena         : Magnetic Suceptibility                        
  Michael Atanasov       : Ab Initio Ligand Field Theory (pilot matlab implementation)
  Alexander A. Auer      : GIAO ZORA, VPT2 properties, NMR spectrum      
  Ute Becker             : All parallelization in ORCA, NUMFREQ, NUMCALC 
  Giovanni Bistoni       : ED, misc. LED, open-shell LED, HFLD           
  Dmytro Bykov           : pre 5.0 version of the SCF Hessian            
  Marcos Casanova-Páez   : Triplet and SCS-CIS(D). UHF-(DLPNO)-IP/EA/STEOM-CCSD. UHF-CVS-IP/STEOM-CCSD   
  Vijay G. Chilkuri      : MRCI spin determinant printing, contributions to CSF-ICE 
  Pauline Colinet        : FMM embedding                                 
  Dipayan Datta          : RHF DLPNO-CCSD density                        
  Achintya Kumar Dutta   : EOM-CC, STEOM-CC                              
  Nicolas Foglia         : Exact transition moments, OPA infrastructure, MCD improvements    
  Dmitry Ganyushin       : Spin-Orbit,Spin-Spin,Magnetic field MRCI      
  Miquel Garcia-Rates    : C-PCM and meta-GGA Hessian, CCSD/C-PCM, Gaussian charge scheme 
  Tiago L. C. Gouveia    : GS-ROHF, GS-ROCIS                             
  Yang Guo               : DLPNO-NEVPT2, F12-NEVPT2, CIM, IAO-localization        
  Andreas Hansen         : Spin unrestricted coupled pair/coupled cluster methods 
  Ingolf Harden          : AUTO-CI MPn and infrastructure                
  Benjamin Helmich-Paris : MC-RPA, TRAH-(SCF,CASSCF), AVAS, COSX integrals, SCF dyn. polar., MC-PDFT, srDFT 
  Lee Huntington         : MR-EOM, pCC                                   
  Robert Izsak           : Overlap fitted RIJCOSX, COSX-SCS-MP3, EOM     
  Riya Kayal             : Wick's Theorem for AUTO-CI, AUTO-CI UHF-CCSDT 
  Emily Kempfer          : AUTO-CI RHF CISDT and CCSDT, approximate NEVPT4
  Christian Kollmar      : KDIIS, OOCD, Brueckner-CCSD(T), CCSD density, CASPT2, CASPT2-K, improved NEVPT2 
  Axel Koslowski         : Symmetry handling                             
  Simone Kossmann        : meta-GGA functionals, TD-DFT gradient, OOMP2, (MP2 Hessian; deprecated post 5.0) 
  Lucas Lang             : DCDCAS, Hyperfine gauge corrections, ICE-SOC+SSC
  Marvin Lechner         : AUTO-CI (C++ implementation), FIC-MRCC        
  Spencer Leger          : CASSCF response                               
  Dagmar Lenk            : GEPOL surface, SMD, ORCA-2-JSON               
  Dimitrios Liakos       : Extrapolation schemes; Compound Job, Property file
  Dimitrios Manganas     : Further ROCIS development; embedding schemes. LFT, Crystal Embedding 
  Dimitrios Pantazis     : SARC Basis sets                               
  Anastasios Papadopoulos: AUTO-CI, single reference methods and gradients 
  Taras Petrenko         : pre 6.0 DFT Hessian and TD-DFT gradient,  ECA, NRVS 
  Petra Pikulova         : Analytic Raman intensities                    
  Peter Pinski           : DLPNO-MP2, DLPNO-MP2 Gradient                 
  Shashank Vittal Rao    : ES-AILFT, MagRelax                            
  Christoph Reimann      : Effective Core Potentials                     
  Marius Retegan         : Local ZFS, SOC                                
  Christoph Riplinger    : Optimizer, TS searches, QM/MM, DLPNO-CCSD(T), (RO)-DLPNO pert. Triples 
  Michael Roemelt        : Original ROCIS implementation, recursive CI coupling coefficients
  Masaaki Saitow         : Open-shell DLPNO-CCSD energy and density      
  Barbara Sandhoefer     : DKH picture change effects                    
  Yorick L. A. Schmerwitz: GMF and freeze-and-release deltaSCF, NEB S-IDPP initial path                    
  Kantharuban Sivalingam : CASSCF convergence/infrastructure, NEVPT2, NEVPT3, NEVPT4(SD), FIC-MRCI and CEPA variants
  Bernardo de Souza      : ESD, SOC TD-DFT                               
  Georgi L. Stoychev     : AutoAux, RI-MP2 NMR, DLPNO-MP2 response, X2C  
  Van Anh Tran           : RI-MP2 g-tensors                              
  Willem Van den Heuvel  : Paramagnetic NMR                              
  Zikuan Wang            : NOTCH, Electric field optimization            
  Frank Wennmohs         : Technical directorship and infrastructure     
  Hang Xu                : AUTO-CI-Response properties                   
                                                                         
[FACCTs GmbH]                                                            
  Markus Bursch, Nicolas Foglia, Miquel Garcia-Rates, Ingolf Harden, Hagen Neugebauer, Anastasios Papadopoulos, 
  Christoph Riplinger, Bernardo de Souza, Georgi L. Stoychev                                                    
                                                                 
  APM, various basis sets, CI-OPT, improved COSX, DLPNO-Multilevel,           
  DOCKER, DRACO, updates on ESD, Fragmentator, GOAT, IRC, LR-CPCM, L-BFGS, MBIS, meta-GGA TD-DFT gradient, ML-optimized integration grids, 
  MM, NACMEs, nearIR, NEB, NEB-TS, NL-DFT gradient (VV10), 2- and 3-layer-ONIOM, interface openCOSMO-RS, QMMM,   
  Crystal-QMMM, RESP, rigid body optimization, SF, symmetry and pop. for TD-DFT, various functionals, SOLVATOR                                   
                                                                         
[Other institutions]                                                     
  V. Asgeirsson          : NEB                                           
  Christoph Bannwarth    : sTDA-DFT, sTD-DFT, PBEh-3c, B97-3c, D3        
  Giovanni Bistoni       : ETS/NOCV, ADLD/ADEX, COVALED                  
  Martin Brehm           : Molecular dynamics                            
  Ronald Cardenas        : ETS/NOCV                                      
  Martina Colucci        : COVALED                                       
  Sebastian Ehlert       : rSCAN, r2SCAN, r2SCAN-3c, D4, dhf basis sets  
  Marvin Friede          : D4 for Fr, Ra, Ac-Lr                          
  Lars Goerigk           : TD-DFT with DH, B97 family of functionals     
  Stefan Grimme          : VdW corrections, initial TS optimization, DFT functionals, gCP, sTDA/sTD-DF 
  Waldemar Hujo          : DFT-NL                                        
  H. Jonsson             : NEB                                           
  Holger Kruse           : gCP                                           
  Marcel Mueller         : wB97X-3c, vDZP basis set                      
  Hagen Neugebauer       : wr2SCAN, Native XTB                           
  Gianluca Regni         : ADLD/ADEX                                     
  Tobias Risthaus        : pre 6.0 range-separated hybrid DFT and stability analysis
  Lukas Wittmann         : regularized MP2, r2SCAN double-hybrids, wr2SCAN        
                                                                         
We gratefully acknowledge several colleagues who have allowed us to      
interface, adapt or use parts of their codes:                            
  Ed Valeev, F. Pavosevic, A. Kumar             : LibInt (2-el integral package), F12 methods 
  Garnet Chan, S. Sharma, J. Yang, R. Olivares  : DMRG                   
  Ulf Ekstrom                                   : XCFun DFT Library      
  Mihaly Kallay                                 : mrcc  (arbitrary order and MRCC methods)
  Frank Weinhold                                : gennbo (NPA and NBO analysis)           
  Simon Mueller                                 : openCOSMO-RS                            
  Christopher J. Cramer and Donald G. Truhlar   : smd solvation model                     
  S Lehtola, MJT Oliveira, MAL Marques          : LibXC Library                           
  Liviu Ungur et al                             : ANISO software                          


 Your calculation uses the libint2 library for the computation of 2-el integrals
 For citations please refer to: http://libint.valeyev.net

 Your ORCA version has been built with support for libXC version: 7.0.0
 For citations please refer to: https://libxc.gitlab.io

 This ORCA versions uses:
   CBLAS   interface :  Fast vector & matrix operations
   LAPACKE interface :  Fast linear algebra routines
   SCALAPACK package :  Parallel linear algebra routines
   Shared memory     :  Shared parallel matrices
   BLAS/LAPACK       :  OpenBLAS 0.3.29  USE64BITINT DYNAMIC_ARCH NO_AFFINITY Haswell SINGLE_THREADED
        Core in use  :  Haswell
   Copyright (c) 2011-2014, The OpenBLAS Project


  ***********************************
  * Starting time: Sat Aug 30 16:19:14 2025
  * Host name:     chemlab03
  * Process ID:    82359
  * Working dir.:  /home/vivek/mm-project/vivek/xtb-goat/B97-D-opt/k/1
  ***********************************



***************************************
The coordinates will be read from file: /home/vivek/mm-project/vivek/xtb-goat/xtb-goat/k/K_CONF/1.xyz
***************************************


Your calculation utilizes empirical dispersion correction


Warning: RI is on but no J-basis has been assigned. Assigning Def2/J (nothing to worry about!)
================================================================================

----- Orbital basis set information -----
Your calculation utilizes the basis: 6-31G**
   H-He, Li-Ne : W. J. Hehre, R. Ditchfield and J.A. Pople, J. Chem. Phys. 56, 2257 (1972).
                 Note: He and Ne are unpublished basis sets taken from the Gaussian program.
                 Note: Li and B from J. D. Dill and J. A. Pople, J. Chem. Phys. 62, 2921 (1975).
   Na - Ar     : M. M. Francl, W. J. Pietro, W. J. Hehre, J. S. Binkley, M. S. Gordon, 
                 D. J. DeFrees and J. A. Pople, J. Chem. Phys. 77, 3654 (1982).
   K - Zn      : V. A. Rassolov, J. A. Pople, M. A. Ratner, and T. L. Windus, J. Chem. Phys. 109, 1223 (1998).

----- AuxJ basis set information -----
Your calculation utilizes the auxiliary basis: def2/J
   H-Rn: F. Weigend, Phys. Chem. Chem. Phys. 8, 1057 (2006).
   Fr-Lr: K. Eichkorn, F. Weigend, O. Treutler, R. Ahlrichs; Theor. Chem. Acc. 97, 119 (1997).

================================================================================
                                        WARNINGS
                       Please study these warnings very carefully!
================================================================================


WARNING: Geometry Optimization
  ===> : Switching off AutoStart
         For restart on a previous wavefunction, please use MOREAD

INFO   : The exchange functional is Grimme's B97(-D)
         As described in S. Grimme, J. Comput. Chem. 27, 1787 (2006).
         Note that this functional defaults to a pure GGA. 

INFO   : The correlation functional is Grimme's B97(-D)
         As described in S. Grimme, J. Comput. Chem. 27, 1787 (2006).

================================================================================
                                       INPUT FILE
================================================================================
NAME = 1.inp
|  1> ! B97-D 6-31G** opt
|  2> 
|  3> * xyzfile 0 1 /home/vivek/mm-project/vivek/xtb-goat/xtb-goat/k/K_CONF/1.xyz
|  4> 
|  5>                          ****END OF INPUT****
================================================================================

                       *****************************
                       * Geometry Optimization Run *
                       *****************************

Geometry optimization settings:
Update method            Update   .... BFGS
Choice of coordinates    CoordSys .... (2022) Redundant Internals
Initial Hessian          InHess   .... Almloef's Model
Max. no of cycles        MaxIter  .... 72

Convergence Tolerances:
Energy Change            TolE     ....  5.0000e-06 Eh
Max. Gradient            TolMAXG  ....  3.0000e-04 Eh/bohr
RMS Gradient             TolRMSG  ....  1.0000e-04 Eh/bohr
Max. Displacement        TolMAXD  ....  4.0000e-03 bohr
RMS Displacement         TolRMSD  ....  2.0000e-03 bohr
Strict Convergence                .... False

------------------------------------------------------------------------------
                        ORCA OPTIMIZATION COORDINATE SETUP
------------------------------------------------------------------------------

The optimization will be done in redundant internal coordinates (2022)
Making redundant internal coordinates   ...  (2022 redundants) done
Evaluating the initial hessian          ...  (Almloef) done
Evaluating the coordinates              ...  done
Calculating the B-matrix                .... done
Calculating the G-matrix                .... done
The number of degrees of freedom        ....  104

    -----------------------------------------------------------------
                    Redundant Internal Coordinates


    -----------------------------------------------------------------
         Definition                    Initial Value    Approx d2E/dq
    -----------------------------------------------------------------
      1. B(C   1,C   0)                  1.5379         0.362900   
      2. B(N   4,H   2)                  1.0149         0.424935   
      3. B(N   4,C   0)                  1.4500         0.448872   
      4. B(N   4,H   3)                  1.0140         0.426318   
      5. B(C   5,C   1)                  1.5267         0.378149   
      6. B(H   6,C   1)                  1.0922         0.357233   
      7. B(H   7,C   1)                  1.0936         0.355330   
      8. B(C   8,C   5)                  1.5257         0.379578   
      9. B(H   9,C   5)                  1.0910         0.358795   
     10. B(H  10,C   5)                  1.0922         0.357157   
     11. B(C  11,C   8)                  1.5382         0.362526   
     12. B(H  12,C   8)                  1.0912         0.358534   
     13. B(H  13,C   8)                  1.0928         0.356425   
     14. B(C  14,C  11)                  1.5234         0.382811   
     15. B(N  16,C  11)                  1.4493         0.450111   
     16. B(O  17,H  15)                  0.9710         0.499433   
     17. B(O  17,C  14)                  1.3372         0.679310   
     18. B(H  18,C   0)                  1.0943         0.354460   
     19. B(H  19,C   0)                  1.0934         0.355640   
     20. B(H  20,N  16)                  1.0162         0.423000   
     21. B(O  21,C  14)                  1.2029         1.112555   
     22. B(H  22,C  11)                  1.0955         0.352897   
     23. B(H  23,N  16)                  1.0145         0.425633   
     24. A(C   1,C   0,H  19)          109.3982         0.322121   
     25. A(C   1,C   0,N   4)          115.6803         0.370785   
     26. A(N   4,C   0,H  18)          107.2023         0.331418   
     27. A(C   1,C   0,H  18)          108.8992         0.321946   
     28. A(H  18,C   0,H  19)          107.9235         0.289553   
     29. A(N   4,C   0,H  19)          107.4718         0.331601   
     30. A(C   5,C   1,H   6)          109.4338         0.324541   
     31. A(C   5,C   1,H   7)          109.5111         0.324257   
     32. A(C   0,C   1,H   6)          108.5188         0.322357   
     33. A(C   0,C   1,C   5)          112.5057         0.362309   
     34. A(H   6,C   1,H   7)          107.6970         0.289867   
     35. A(C   0,C   1,H   7)          109.0532         0.322075   
     36. A(C   0,N   4,H   3)          110.3835         0.338816   
     37. A(C   0,N   4,H   2)          110.1288         0.338632   
     38. A(H   2,N   4,H   3)          107.6673         0.301663   
     39. A(C   8,C   5,H  10)          109.2566         0.324731   
     40. A(C   1,C   5,H  10)          109.3638         0.324530   
     41. A(C   8,C   5,H   9)          108.0036         0.324975   
     42. A(C   1,C   5,H   9)          110.4254         0.324774   
     43. A(C   1,C   5,C   8)          111.7600         0.365103   
     44. A(H   9,C   5,H  10)          107.9423         0.290299   
     45. A(H  12,C   8,H  13)          108.3415         0.290173   
     46. A(C  11,C   8,H  12)          109.0355         0.322495   
     47. A(C  11,C   8,H  13)          108.6205         0.322183   
     48. A(C   5,C   8,H  13)          109.5680         0.324622   
     49. A(C   5,C   8,H  12)          110.1860         0.324937   
     50. A(C   5,C   8,C  11)          111.0307         0.362479   
     51. A(C  14,C  11,N  16)          112.4376         0.374391   
     52. A(C   8,C  11,N  16)          110.0152         0.370896   
     53. A(C   8,C  11,C  14)          108.3356         0.363004   
     54. A(N  16,C  11,H  22)          108.8178         0.331327   
     55. A(C  14,C  11,H  22)          108.2750         0.324544   
     56. A(C   8,C  11,H  22)          108.8878         0.321659   
     57. A(C  11,C  14,O  17)          112.6778         0.402254   
     58. A(O  17,C  14,O  21)          122.8933         0.484530   
     59. A(C  11,C  14,O  21)          124.4267         0.439260   
     60. A(H  20,N  16,H  23)          106.8712         0.301366   
     61. A(C  11,N  16,H  23)          110.3108         0.338881   
     62. A(C  11,N  16,H  20)          109.1840         0.338530   
     63. A(C  14,O  17,H  15)          110.5465         0.373385   
     64. D(H   6,C   1,C   0,H  19)     64.4343         0.010554   
     65. D(H   6,C   1,C   0,N   4)   -174.0652         0.010554   
     66. D(H   6,C   1,C   0,H  18)    -53.3026         0.010554   
     67. D(C   5,C   1,C   0,N   4)     64.6967         0.010554   
     68. D(C   5,C   1,C   0,H  18)   -174.5408         0.010554   
     69. D(C   5,C   1,C   0,H  19)    -56.8039         0.010554   
     70. D(H   2,N   4,C   0,C   1)     56.2193         0.017187   
     71. D(H   3,N   4,C   0,H  18)    175.7929         0.017187   
     72. D(H   3,N   4,C   0,C   1)    -62.5321         0.017187   
     73. D(H   2,N   4,C   0,H  19)    178.7470         0.017187   
     74. D(H   2,N   4,C   0,H  18)    -65.4557         0.017187   
     75. D(H   9,C   5,C   1,C   0)    -62.1931         0.011403   
     76. D(C   8,C   5,C   1,H   6)     56.8433         0.011403   
     77. D(C   8,C   5,C   1,C   0)    177.5574         0.011403   
     78. D(C   8,C   5,C   1,H   7)    -60.9966         0.011403   
     79. D(H   9,C   5,C   1,H   7)     59.2529         0.011403   
     80. D(H   9,C   5,C   1,H   6)    177.0928         0.011403   
     81. D(H  12,C   8,C   5,H   9)    173.8734         0.011484   
     82. D(H  12,C   8,C   5,C   1)    -64.4696         0.011484   
     83. D(C  11,C   8,C   5,H  10)    -64.2051         0.011484   
     84. D(C  11,C   8,C   5,H   9)     52.9661         0.011484   
     85. D(H  12,C   8,C   5,H  10)     56.7022         0.011484   
     86. D(C  11,C   8,C   5,C   1)    174.6231         0.011484   
     87. D(N  16,C  11,C   8,H  13)     59.1762         0.010534   
     88. D(N  16,C  11,C   8,H  12)    177.0496         0.010534   
     89. D(N  16,C  11,C   8,C   5)    -61.3674         0.010534   
     90. D(C  14,C  11,C   8,H  13)    -64.0990         0.010534   
     91. D(C  14,C  11,C   8,H  12)     53.7745         0.010534   
     92. D(C  14,C  11,C   8,C   5)    175.3575         0.010534   
     93. D(O  17,C  14,C  11,N  16)    165.9551         0.010925   
     94. D(O  17,C  14,C  11,C   8)    -72.2446         0.010925   
     95. D(O  21,C  14,C  11,N  16)    -14.5697         0.010925   
     96. D(O  21,C  14,C  11,C   8)    107.2306         0.010925   
     97. D(O  17,C  14,C  11,H  22)     45.6980         0.010925   
     98. D(H  23,N  16,C  11,C  14)    -62.9760         0.017283   
     99. D(H  23,N  16,C  11,C   8)    176.1837         0.017283   
    100. D(H  20,N  16,C  11,H  22)    174.1243         0.017283   
    101. D(H  20,N  16,C  11,C  14)     54.1813         0.017283   
    102. D(H  20,N  16,C  11,C   8)    -66.6590         0.017283   
    103. D(H  15,O  17,C  14,O  21)     -0.8125         0.034365   
    104. D(H  15,O  17,C  14,C  11)    178.6720         0.034365   
    -----------------------------------------------------------------

Number of atoms                         .... 24
Number of degrees of freedom            .... 104


         *************************************************************
         *                GEOMETRY OPTIMIZATION CYCLE   1            *
         *************************************************************
---------------------------------
CARTESIAN COORDINATES (ANGSTROEM)
---------------------------------
  C    -14.171089    7.107868    0.822124
  C    -12.698078    7.088619    1.263688
  H    -14.815388    5.471132    1.847557
  H    -14.438568    5.160011    0.284132
  N    -14.867972    5.838871    0.903049
  C    -11.827658    6.221414    0.357542
  H    -12.320687    8.113503    1.257598
  H    -12.638135    6.718378    2.290993
  C    -10.360744    6.262001    0.774861
  H    -12.159319    5.182619    0.391631
  H    -11.918609    6.569994   -0.673571
  C     -9.521336    5.282015   -0.062394
  H     -9.961373    7.269719    0.649585
  H    -10.272142    5.985492    1.828373
  C     -8.057516    5.455164    0.322121
  H     -6.610522    6.686843    0.144594
  N     -9.990518    3.926238    0.142814
  O     -7.536103    6.598493   -0.135162
  H    -14.719431    7.818699    1.447844
  H    -14.235235    7.452146   -0.213668
  H     -9.802151    3.649321    1.102215
  O     -7.427423    4.664382    0.973815
  H     -9.630639    5.537169   -1.122143
  H     -9.481616    3.283290   -0.454531

----------------------------
CARTESIAN COORDINATES (A.U.)
----------------------------
  NO LB      ZA    FRAG     MASS         X           Y           Z
   0 C     6.0000    0    12.011  -26.779476   13.431924    1.553588
   1 C     6.0000    0    12.011  -23.995890   13.395548    2.388024
   2 H     1.0000    0     1.008  -27.997026   10.338941    3.491377
   3 H     1.0000    0     1.008  -27.284940    9.751008    0.536932
   4 N     7.0000    0    14.007  -28.096396   11.033867    1.706516
   5 C     6.0000    0    12.011  -22.351035   11.756769    0.675657
   6 H     1.0000    0     1.008  -23.282724   15.332298    2.376516
   7 H     1.0000    0     1.008  -23.882615   12.695894    4.329349
   8 C     6.0000    0    12.011  -19.578969   11.833466    1.464274
   9 H     1.0000    0     1.008  -22.977783    9.793731    0.740076
  10 H     1.0000    0     1.008  -22.522907   12.415489   -1.272865
  11 C     6.0000    0    12.011  -17.992718    9.981561   -0.117907
  12 H     1.0000    0     1.008  -18.824267   13.737778    1.227538
  13 H     1.0000    0     1.008  -19.411536   11.310941    3.455124
  14 C     6.0000    0    12.011  -15.226499   10.308766    0.608721
  15 H     1.0000    0     1.008  -12.492077   12.636302    0.273242
  16 N     7.0000    0    14.007  -18.879343    7.419514    0.269880
  17 O     8.0000    0    15.999  -14.241170   12.469345   -0.255419
  18 H     1.0000    0     1.008  -27.815693   14.775200    2.736029
  19 H     1.0000    0     1.008  -26.900696   14.082514   -0.403775
  20 H     1.0000    0     1.008  -18.523381    6.896217    2.082885
  21 O     8.0000    0    15.999  -14.035795    8.814404    1.840245
  22 H     1.0000    0     1.008  -18.199270   10.463733   -2.120544
  23 H     1.0000    0     1.008  -17.917658    6.204518   -0.858938

--------------------------------
INTERNAL COORDINATES (ANGSTROEM)
--------------------------------
 C      0   0   0     0.000000000000     0.00000000     0.00000000
 C      1   0   0     1.537891391036     0.00000000     0.00000000
 H      1   2   0     2.036060068251    98.53575371     0.00000000
 H      3   1   2     1.638012959157    66.37093846   262.97411034
 N      4   3   1     1.014049612019    36.18463696   320.98651827
 C      2   1   3     1.526687256688   112.50565731    87.86124769
 H      2   1   3     1.092175977911   108.51881850   209.09940964
 H      2   1   3     1.093629900076   109.05319453   326.15458205
 C      6   2   1     1.525660163103   111.76002275   177.55735804
 H      6   2   1     1.090988652876   110.42543628   297.80686262
 H      6   2   1     1.092233932839   109.36377413    56.44763961
 C      9   6   2     1.538171953931   111.03065598   174.62308623
 H      9   6   2     1.091186476539   110.18598084   295.53040542
 H      9   6   2     1.092792211465   109.56804234    54.64167628
 C     12   9   6     1.523351847821   108.33559213   175.35747729
 H     15  12   9     1.908491672938   141.11728041   288.76325469
 N     12   9   6     1.449266414209   110.01523224   298.63259752
 O     16  15  12     0.970962392416    41.00326696   358.04773559
 H      1   2   3     1.094297553296   108.89917220    97.59796876
 H      1   2   3     1.093392475669   109.39818303   215.33484649
 H     17  12   9     1.016176588653   109.18397305   293.34095233
 O     15  12   9     1.202937706803   124.42674916   107.23060458
 H     12   9   6     1.095500135383   108.88777260    57.80649908
 H     17  12   9     1.014487553741   110.31080432   176.18372234

---------------------------
INTERNAL COORDINATES (A.U.)
---------------------------
 C      0   0   0     0.000000000000     0.00000000     0.00000000
 C      1   0   0     2.906193552773     0.00000000     0.00000000
 H      1   2   0     3.847595921208    98.53575371     0.00000000
 H      3   1   2     3.095395896621    66.37093846   262.97411034
 N      4   3   1     1.916276052924    36.18463696   320.98651827
 C      2   1   3     2.885020807289   112.50565731    87.86124769
 H      2   1   3     2.063913488299   108.51881850   209.09940964
 H      2   1   3     2.066661003012   109.05319453   326.15458205
 C      6   2   1     2.883079881698   111.76002275   177.55735804
 H      6   2   1     2.061669769151   110.42543628   297.80686262
 H      6   2   1     2.064023007241   109.36377413    56.44763961
 C      9   6   2     2.906723739808   111.03065598   174.62308623
 H      9   6   2     2.062043601697   110.18598084   295.53040542
 H      9   6   2     2.065078000951   109.56804234    54.64167628
 C     12   9   6     2.878717797985   108.33559213   175.35747729
 H     15  12   9     3.606526590722   141.11728041   288.76325469
 N     12   9   6     2.738716617945   110.01523224   298.63259752
 O     16  15  12     1.834853008003    41.00326696   358.04773559
 H      1   2   3     2.067922684750   108.89917220    97.59796876
 H      1   2   3     2.066212335905   109.39818303   215.33484649
 H     17  12   9     1.920295456257   109.18397305   293.34095233
 O     15  12   9     2.273222822026   124.42674916   107.23060458
 H     12   9   6     2.070195235548   108.88777260    57.80649908
 H     17  12   9     1.917103642841   110.31080432   176.18372234

---------------------
BASIS SET INFORMATION
---------------------
There are 4 groups of distinct atoms

 Group   1 Type C   : 10s4p1d contracted to 3s2p1d pattern {631/31/1}
 Group   2 Type H   : 4s1p contracted to 2s1p pattern {31/1}
 Group   3 Type N   : 10s4p1d contracted to 3s2p1d pattern {631/31/1}
 Group   4 Type O   : 10s4p1d contracted to 3s2p1d pattern {631/31/1}

Atom   0C    basis set group =>   1
Atom   1C    basis set group =>   1
Atom   2H    basis set group =>   2
Atom   3H    basis set group =>   2
Atom   4N    basis set group =>   3
Atom   5C    basis set group =>   1
Atom   6H    basis set group =>   2
Atom   7H    basis set group =>   2
Atom   8C    basis set group =>   1
Atom   9H    basis set group =>   2
Atom  10H    basis set group =>   2
Atom  11C    basis set group =>   1
Atom  12H    basis set group =>   2
Atom  13H    basis set group =>   2
Atom  14C    basis set group =>   1
Atom  15H    basis set group =>   2
Atom  16N    basis set group =>   3
Atom  17O    basis set group =>   4
Atom  18H    basis set group =>   2
Atom  19H    basis set group =>   2
Atom  20H    basis set group =>   2
Atom  21O    basis set group =>   4
Atom  22H    basis set group =>   2
Atom  23H    basis set group =>   2
---------------------------------
AUXILIARY/J BASIS SET INFORMATION
---------------------------------
There are 4 groups of distinct atoms

 Group   1 Type C   : 12s5p4d2f1g contracted to 6s4p3d1f1g pattern {711111/2111/211/2/1}
 Group   2 Type H   : 5s2p1d contracted to 3s1p1d pattern {311/2/1}
 Group   3 Type N   : 12s5p4d2f1g contracted to 6s4p3d1f1g pattern {711111/2111/211/2/1}
 Group   4 Type O   : 12s5p4d2f1g contracted to 6s4p3d1f1g pattern {711111/2111/211/2/1}

Atom   0C    basis set group =>   1
Atom   1C    basis set group =>   1
Atom   2H    basis set group =>   2
Atom   3H    basis set group =>   2
Atom   4N    basis set group =>   3
Atom   5C    basis set group =>   1
Atom   6H    basis set group =>   2
Atom   7H    basis set group =>   2
Atom   8C    basis set group =>   1
Atom   9H    basis set group =>   2
Atom  10H    basis set group =>   2
Atom  11C    basis set group =>   1
Atom  12H    basis set group =>   2
Atom  13H    basis set group =>   2
Atom  14C    basis set group =>   1
Atom  15H    basis set group =>   2
Atom  16N    basis set group =>   3
Atom  17O    basis set group =>   4
Atom  18H    basis set group =>   2
Atom  19H    basis set group =>   2
Atom  20H    basis set group =>   2
Atom  21O    basis set group =>   4
Atom  22H    basis set group =>   2
Atom  23H    basis set group =>   2
------------------------------------------------------------------------------
                             ORCA STARTUP CALCULATIONS
                           -- RI-GTO INTEGRALS CHOSEN --
------------------------------------------------------------------------------
------------------------------------------------------------------------------
                   ___                                                        
                  /   \      - P O W E R E D   B Y -                         
                 /     \                                                     
                 |  |  |   _    _      __       _____    __    __             
                 |  |  |  | |  | |    /  \     |  _  \  |  |  /  |          
                  \  \/   | |  | |   /    \    | | | |  |  | /  /          
                 / \  \   | |__| |  /  /\  \   | |_| |  |  |/  /          
                |  |  |   |  __  | /  /__\  \  |    /   |      \           
                |  |  |   | |  | | |   __   |  |    \   |  |\   \          
                \     /   | |  | | |  |  |  |  | |\  \  |  | \   \       
                 \___/    |_|  |_| |__|  |__|  |_| \__\ |__|  \__/        
                                                                              
                      - O R C A' S   B I G   F R I E N D -                    
                                      &                                       
                       - I N T E G R A L  F E E D E R -                       
                                                                              
 v1 FN, 2020, v2 2021, v3 2022-2024                                           
------------------------------------------------------------------------------


----------------------
SHARK INTEGRAL PACKAGE
----------------------

Number of atoms                             ...     24
Number of basis functions                   ...    210
Number of shells                            ...    102
Maximum angular momentum                    ...      2
Integral batch strategy                     ... SHARK/LIBINT Hybrid
RI-J (if used) integral strategy            ... SPLIT-RIJ (Revised 2003 algorithm where possible)
Printlevel                                  ...      1
Contraction scheme used                     ... SEGMENTED contraction
Prescreening option                         ... SCHWARTZ
   Thresh                                   ... 2.500e-11
   Tcut                                     ... 2.500e-12
   Tpresel                                  ... 2.500e-12 
Coulomb Range Separation                    ... NOT USED
Exchange Range Separation                   ... NOT USED
Multipole approximations                    ... NOT USED
Finite Nucleus Model                        ... NOT USED
CABS basis                                  ... NOT available
Auxiliary Coulomb fitting basis             ... AVAILABLE
   # of basis functions in Aux-J            ...    644
   # of shells in Aux-J                     ...    220
   Maximum angular momentum in Aux-J        ...      4
Auxiliary J/K fitting basis                 ... NOT available
Auxiliary Correlation fitting basis         ... NOT available
Auxiliary 'external' fitting basis          ... NOT available

Checking pre-screening integrals            ... done (  0.0 sec) Dimension = 102
   => SHARK Basis and OBASIS are compatible. Storing Pre-screening
Shell pair information
Shell pair cut-off parameter TPreSel        ...   2.5e-12
Total number of shell pairs                 ...      5253
Shell pairs after pre-screening             ...      4320
Total number of primitive shell pairs       ...     24562
Primitive shell pairs kept                  ...     13274
          la=0 lb=0:   1438 shell pairs
          la=1 lb=0:   1629 shell pairs
          la=1 lb=1:    482 shell pairs
          la=2 lb=0:    465 shell pairs
          la=2 lb=1:    264 shell pairs
          la=2 lb=2:     42 shell pairs

Checking whether 4 symmetric matrices of dimension 210 fit in memory
:Max Core in MB      =   4096.00
 MB in use           =      9.17
 MB left             =   4086.83
 MB needed           =      0.68
 Data fit in memory  = YES
Calculating RI/J V-Matrix + Cholesky decomp.... done (  0.0 sec)
Calculating Nuclear repulsion               ... done (  0.0 sec) ENN=    550.416845226379 Eh

Diagonalization of the overlap matrix:
Smallest eigenvalue                        ... 2.515e-03
Time for diagonalization                   ...    0.002 sec
Threshold for overlap eigenvalues          ... 1.000e-07
Number of eigenvalues below threshold      ... 0
Time for construction of square roots      ...    0.001 sec
Total time needed                          ...    0.003 sec

-------------------
DFT GRID GENERATION
-------------------

General Integration Accuracy     IntAcc      ... 4.388
Radial Grid Type                 RadialGrid  ... OptM3 with GC (2021)
Angular Grid (max. ang.)         AngularGrid ... 4 (Lebedev-302)
Angular grid pruning method      GridPruning ... 4 (adaptive)
Weight generation scheme         WeightScheme... mBecke (2022)
Basis function cutoff            BFCut       ... 1.0000e-11
Integration weight cutoff        WCut        ... 1.0000e-14
Partially contracted basis set               ... off
Rotationally invariant grid construction     ... off
Angular grids for H and He will be reduced by one unit

Total number of grid points                  ...   104876
Total number of batches                      ...     1652
Average number of points per batch           ...       63
Average number of grid points per atom       ...     4370
Grids setup in   0.4 sec
Initializing property integral containers    ... done (  0.0 sec)

SHARK setup successfully completed in   0.5 seconds

Maximum memory used throughout the entire STARTUP-calculation: 44.0 MB
-------------------------------------------------------------------------------
                                 ORCA GUESS
                   Start orbitals & Density for SCF / CASSCF
-------------------------------------------------------------------------------

------------
SCF SETTINGS
------------
Hamiltonian:
 Density Functional     Method          .... DFT(GTOs)
 Exchange Functional    Exchange        .... B97(D)
 Correlation Functional Correlation     .... B97(D)
 Gradients option       PostSCFGGA      .... off
 RI-approximation to the Coulomb term is turned on
   Number of AuxJ basis functions       .... 644


General Settings:
 Integral files         IntName         .... 1
 Hartree-Fock type      HFTyp           .... RHF
 Total Charge           Charge          ....    0
 Multiplicity           Mult            ....    1
 Number of Electrons    NEL             ....   80
 Basis Dimension        Dim             ....  210
 Nuclear Repulsion      ENuc            ....    550.4168452264 Eh

Convergence Acceleration:
 AO-DIIS                CNVDIIS         .... on
   Start iteration      DIISMaxIt       ....    12
   Startup error        DIISStart       ....  0.200000
   # of expansion vecs  DIISMaxEq       ....     5
   Bias factor          DIISBfac        ....   1.050
   Max. coefficient     DIISMaxC        ....  10.000
 MO-DIIS                CNVKDIIS        .... off
 Trust-Rad. Augm. Hess. CNVTRAH         .... auto
   Auto Start mean grad. ratio tolernc. ....  1.125000
   Auto Start start iteration           ....    50
   Auto Start num. interpolation iter.  ....    10
   Max. Number of Micro iterations      ....    24
   Max. Number of Macro iterations      .... Maxiter - #DIIS iter
   Number of Davidson start vectors     ....     2
   Converg. threshold    (grad. norm)   ....   1.000e-05
   Grad. Scal. Fac. for Micro threshold ....   0.100
   Minimum threshold for Micro iter.    ....   1.000e-02
   NR start threshold (gradient norm)   ....   1.000e-04
   Initial trust radius                 ....   0.400
   Minimum AH scaling param. (alpha)    ....   1.000
   Maximum AH scaling param. (alpha)    .... 1000.000
   Quad. conv. algorithm                .... NR
   White noise on init. David. guess    .... on
   Maximum white noise                  ....   0.010
   Pseudo random numbers                .... off
   Inactive MOs                         .... canonical
   Orbital update algorithm             .... Taylor
   Preconditioner                       .... Diag
   Full preconditioner red. dimension   ....   250
 SOSCF                 CNVSOSCF           .... on
   Start iteration     SOSCFMaxIt         ....   150
   Startup grad/error  SOSCFStart         ....  0.003300
   Hessian update      SOSCFHessUp        .... L-BFGS
   Autom. constraints  SOSCFAutoConstrain .... off
 Level Shifting         CNVShift        .... on
   Level shift para.    LevelShift      ....    0.2500
   Turn off err/grad.   ShiftErr        ....    0.0010
 Zerner damping         CNVZerner       .... off
 Static damping         CNVDamp         .... on
   Fraction old density DampFac         ....    0.7000
   Max. Damping (<1)    DampMax         ....    0.9800
   Min. Damping (>=0)   DampMin         ....    0.0000
   Turn off err/grad.   DampErr         ....    0.1000

SCF Procedure:
 Maximum # iterations   MaxIter         ....   125
 SCF integral mode      SCFMode         .... Direct
   Integral package                     .... SHARK and LIBINT hybrid scheme
 Reset frequency        DirectResetFreq ....    20
 Integral Threshold     Thresh          ....  2.500e-11 Eh
 Primitive CutOff       TCut            ....  2.500e-12 Eh

Convergence Tolerance:
 Convergence Check Mode ConvCheckMode   .... Total+1el-Energy
 Convergence forced     ConvForced      .... 0
 Energy Change          TolE            ....  1.000e-08 Eh
 1-El. energy change                    ....  1.000e-05 Eh
 Orbital Gradient       TolG            ....  1.000e-05
 Orbital Rotation angle TolX            ....  1.000e-05
 DIIS Error             TolErr          ....  5.000e-07

------------------------------
INITIAL GUESS: MODEL POTENTIAL
------------------------------
Loading Hartree-Fock densities                     ... done
Calculating cut-offs                               ... done
Initializing the effective Hamiltonian             ... done
Setting up the integral package (SHARK)            ... done
Starting the Coulomb interaction                   ... done (   0.1 sec)
Making the grid                                    ... done (   0.1 sec)
Mapping shells                                     ... done
Starting the XC term evaluation                    ... done (   0.1 sec)
  promolecular density results
     # of electrons  =     79.995005772
     EX              =    -63.613117749
     EC              =     -3.477554993
     EX+EC           =    -67.090672742
Transforming the Hamiltonian                       ... done (   0.0 sec)
Diagonalizing the Hamiltonian                      ... done (   0.0 sec)
Back transforming the eigenvectors                 ... done (   0.0 sec)
Now organizing SCF variables                       ... done
                      ------------------
                      INITIAL GUESS DONE (   0.3 sec)
                      ------------------
             **** ENERGY FILE WAS UPDATED (1.en.tmp) ****
Finished Guess after   0.4 sec
Maximum memory used throughout the entire GUESS-calculation: 14.5 MB

-------------------------------------------------------------------------------------------
                                      ORCA LEAN-SCF
                              memory conserving SCF solver
-------------------------------------------------------------------------------------------

----------------------------------------D-I-I-S--------------------------------------------
Iteration    Energy (Eh)           Delta-E    RMSDP     MaxDP     DIISErr   Damp  Time(sec)
-------------------------------------------------------------------------------------------
               ***  Starting incremental Fock matrix formation  ***
    1    -496.2771649153949056     0.00e+00  3.53e-03  1.01e-01  2.54e-01  0.700   0.6
    2    -496.4803561612291105    -2.03e-01  2.32e-03  5.28e-02  1.03e-01  0.700   0.6
                               ***Turning on AO-DIIS***
    3    -496.5435507211186632    -6.32e-02  8.96e-04  1.83e-02  3.27e-02  0.700   0.6
    4    -496.5842229288812177    -4.07e-02  1.19e-03  2.09e-02  1.10e-02  0.000   0.6
    5    -496.6785140573992976    -9.43e-02  4.03e-04  9.70e-03  1.14e-02  0.000   0.6
    6    -496.6794880852207825    -9.74e-04  1.54e-04  3.48e-03  3.58e-03  0.000   0.6
                              *** Initializing SOSCF ***
---------------------------------------S-O-S-C-F--------------------------------------
Iteration    Energy (Eh)           Delta-E    RMSDP     MaxDP     MaxGrad    Time(sec)
--------------------------------------------------------------------------------------
    7    -496.6795730392127552    -8.50e-05  5.73e-05  1.33e-03  1.74e-03     0.5
               *** Restarting incremental Fock matrix formation ***
    8    -496.6795845110675600    -1.15e-05  3.89e-05  7.18e-04  1.39e-04     0.6
    9    -496.6795847386151763    -2.28e-07  1.69e-05  5.02e-04  2.36e-04     0.5
   10    -496.6795854781692015    -7.40e-07  1.69e-05  4.53e-04  2.18e-04     0.5
   11    -496.6795854725751269     5.59e-09  8.05e-06  2.43e-04  1.40e-04     0.5
                 **** Energy Check signals convergence ****

               *****************************************************
               *                     SUCCESS                       *
               *           SCF CONVERGED AFTER  11 CYCLES          *
               *****************************************************

             **** ENERGY FILE WAS UPDATED (1.en.tmp) ****

----------------
TOTAL SCF ENERGY
----------------

Total Energy       :       -496.67958581763537 Eh          -13515.33864 eV

Components:
Nuclear Repulsion  :        550.41684522637934 Eh           14977.60381 eV
Electronic Energy  :      -1047.09643104401471 Eh          -28492.94244 eV
One Electron Energy:      -1767.40028435684644 Eh          -48093.40676 eV
Two Electron Energy:        720.30385331283173 Eh           19600.46432 eV

Virial components:
Potential Energy   :       -990.77828965002607 Eh          -26960.44790 eV
Kinetic Energy     :        494.09870383239070 Eh           13445.10927 eV
Virial Ratio       :          2.00522341379410

DFT components:
N(Alpha)           :       39.999964775420 electrons
N(Beta)            :       39.999964775420 electrons
N(Total)           :       79.999929550839 electrons
E(X)               :      -65.197754130896 Eh       
E(C)               :       -3.469475351169 Eh       
E(XC)              :      -68.667229482065 Eh       

---------------
SCF CONVERGENCE
---------------

  Last Energy change         ...   -5.5941e-09  Tolerance :   1.0000e-08
  Last MAX-Density change    ...    2.4333e-04  Tolerance :   1.0000e-07
  Last RMS-Density change    ...    8.0462e-06  Tolerance :   5.0000e-09
  Last DIIS Error            ...    1.7418e-03  Tolerance :   5.0000e-07
  Last Orbital Gradient      ...    1.3970e-04  Tolerance :   1.0000e-05
  Last Orbital Rotation      ...    1.4853e-04  Tolerance :   1.0000e-05


----------------
ORBITAL ENERGIES
----------------

  NO   OCC          E(Eh)            E(eV) 
   0   2.0000     -18.814876      -511.9788 
   1   2.0000     -18.754176      -510.3271 
   2   2.0000     -13.989051      -380.6614 
   3   2.0000     -13.975031      -380.2799 
   4   2.0000     -10.027500      -272.8621 
   5   2.0000      -9.948047      -270.7001 
   6   2.0000      -9.919266      -269.9169 
   7   2.0000      -9.909564      -269.6530 
   8   2.0000      -9.896621      -269.3007 
   9   2.0000      -9.895052      -269.2580 
  10   2.0000      -1.021451       -27.7951 
  11   2.0000      -0.932613       -25.3777 
  12   2.0000      -0.818097       -22.2616 
  13   2.0000      -0.798202       -21.7202 
  14   2.0000      -0.717450       -19.5228 
  15   2.0000      -0.667586       -18.1659 
  16   2.0000      -0.619086       -16.8462 
  17   2.0000      -0.564713       -15.3666 
  18   2.0000      -0.529554       -14.4099 
  19   2.0000      -0.517132       -14.0719 
  20   2.0000      -0.458497       -12.4763 
  21   2.0000      -0.444816       -12.1041 
  22   2.0000      -0.432652       -11.7731 
  23   2.0000      -0.421736       -11.4760 
  24   2.0000      -0.411609       -11.2004 
  25   2.0000      -0.394971       -10.7477 
  26   2.0000      -0.381222       -10.3736 
  27   2.0000      -0.370156       -10.0724 
  28   2.0000      -0.359761        -9.7896 
  29   2.0000      -0.346316        -9.4237 
  30   2.0000      -0.331847        -9.0300 
  31   2.0000      -0.322884        -8.7861 
  32   2.0000      -0.303434        -8.2569 
  33   2.0000      -0.295054        -8.0288 
  34   2.0000      -0.285716        -7.7747 
  35   2.0000      -0.278777        -7.5859 
  36   2.0000      -0.272538        -7.4161 
  37   2.0000      -0.224553        -6.1104 
  38   2.0000      -0.198024        -5.3885 
  39   2.0000      -0.177246        -4.8231 
  40   0.0000      -0.016517        -0.4494 
  41   0.0000       0.050285         1.3683 
  42   0.0000       0.064226         1.7477 
  43   0.0000       0.072015         1.9596 
  44   0.0000       0.090872         2.4727 
  45   0.0000       0.098221         2.6727 
  46   0.0000       0.113298         3.0830 
  47   0.0000       0.120042         3.2665 
  48   0.0000       0.137354         3.7376 
  49   0.0000       0.143173         3.8959 
  50   0.0000       0.155001         4.2178 
*Only the first 10 virtual orbitals were printed.

                    ********************************
                    * MULLIKEN POPULATION ANALYSIS *
                    ********************************

-----------------------
MULLIKEN ATOMIC CHARGES
-----------------------
   0 C :   -0.085272
   1 C :   -0.192492
   2 H :    0.231131
   3 H :    0.238825
   4 N :   -0.571787
   5 C :   -0.179566
   6 H :    0.088331
   7 H :    0.087292
   8 C :   -0.191645
   9 H :    0.115623
  10 H :    0.092287
  11 C :   -0.048507
  12 H :    0.118589
  13 H :    0.100704
  14 C :    0.484263
  15 H :    0.317641
  16 N :   -0.551167
  17 O :   -0.455095
  18 H :    0.101405
  19 H :    0.103128
  20 H :    0.245639
  21 O :   -0.418327
  22 H :    0.124334
  23 H :    0.244666
Sum of atomic charges:   -0.0000000

--------------------------------
MULLIKEN REDUCED ORBITAL CHARGES
--------------------------------
  0 C s       :     3.196690  s :     3.196690
      pz      :     1.045480  p :     2.836016
      px      :     0.916464
      py      :     0.874072
      dz2     :     0.009908  d :     0.052566
      dxz     :     0.005994
      dyz     :     0.008911
      dx2y2   :     0.013110
      dxy     :     0.014642

  1 C s       :     3.225784  s :     3.225784
      pz      :     0.984494  p :     2.930439
      px      :     0.943442
      py      :     1.002502
      dz2     :     0.010398  d :     0.036269
      dxz     :     0.005759
      dyz     :     0.004419
      dx2y2   :     0.008967
      dxy     :     0.006726

  2 H s       :     0.744948  s :     0.744948
      pz      :     0.010600  p :     0.023921
      px      :     0.007887
      py      :     0.005434

  3 H s       :     0.737054  s :     0.737054
      pz      :     0.007790  p :     0.024121
      px      :     0.008723
      py      :     0.007607

  4 N s       :     3.585120  s :     3.585120
      pz      :     1.172615  p :     3.957917
      px      :     1.696427
      py      :     1.088874
      dz2     :     0.005388  d :     0.028750
      dxz     :     0.003553
      dyz     :     0.007982
      dx2y2   :     0.003029
      dxy     :     0.008798

  5 C s       :     3.219370  s :     3.219370
      pz      :     0.978198  p :     2.923323
      px      :     0.921259
      py      :     1.023866
      dz2     :     0.010591  d :     0.036872
      dxz     :     0.005645
      dyz     :     0.004247
      dx2y2   :     0.009630
      dxy     :     0.006760

  6 H s       :     0.900133  s :     0.900133
      pz      :     0.002523  p :     0.011536
      px      :     0.003047
      py      :     0.005965

  7 H s       :     0.901235  s :     0.901235
      pz      :     0.005972  p :     0.011473
      px      :     0.002554
      py      :     0.002947

  8 C s       :     3.232765  s :     3.232765
      pz      :     0.988042  p :     2.922301
      px      :     0.948008
      py      :     0.986251
      dz2     :     0.010800  d :     0.036579
      dxz     :     0.005536
      dyz     :     0.003889
      dx2y2   :     0.007804
      dxy     :     0.008552

  9 H s       :     0.872312  s :     0.872312
      pz      :     0.002489  p :     0.012065
      px      :     0.002936
      py      :     0.006640

 10 H s       :     0.896149  s :     0.896149
      pz      :     0.006015  p :     0.011564
      px      :     0.002544
      py      :     0.003006

 11 C s       :     3.200342  s :     3.200342
      pz      :     1.036490  p :     2.790750
      px      :     0.908083
      py      :     0.846177
      dz2     :     0.013091  d :     0.057415
      dxz     :     0.004650
      dyz     :     0.009151
      dx2y2   :     0.016593
      dxy     :     0.013931

 12 H s       :     0.869850  s :     0.869850
      pz      :     0.002564  p :     0.011561
      px      :     0.003091
      py      :     0.005906

 13 H s       :     0.887743  s :     0.887743
      pz      :     0.006274  p :     0.011553
      px      :     0.002531
      py      :     0.002749

 14 C s       :     2.988486  s :     2.988486
      pz      :     0.781289  p :     2.402753
      px      :     0.894129
      py      :     0.727335
      dz2     :     0.017926  d :     0.124498
      dxz     :     0.017875
      dyz     :     0.023060
      dx2y2   :     0.038423
      dxy     :     0.027214

 15 H s       :     0.644450  s :     0.644450
      pz      :     0.009917  p :     0.037910
      px      :     0.020324
      py      :     0.007669

 16 N s       :     3.586662  s :     3.586662
      pz      :     1.175363  p :     3.936075
      px      :     1.691403
      py      :     1.069310
      dz2     :     0.005773  d :     0.028430
      dxz     :     0.005161
      dyz     :     0.005635
      dx2y2   :     0.003367
      dxy     :     0.008494

 17 O s       :     3.824239  s :     3.824239
      pz      :     1.726393  p :     4.608122
      px      :     1.358311
      py      :     1.523418
      dz2     :     0.003539  d :     0.022734
      dxz     :     0.002953
      dyz     :     0.005164
      dx2y2   :     0.008075
      dxy     :     0.003002

 18 H s       :     0.887858  s :     0.887858
      pz      :     0.003658  p :     0.010737
      px      :     0.003391
      py      :     0.003688

 19 H s       :     0.886055  s :     0.886055
      pz      :     0.005982  p :     0.010817
      px      :     0.002443
      py      :     0.002392

 20 H s       :     0.730423  s :     0.730423
      pz      :     0.011024  p :     0.023938
      px      :     0.008024
      py      :     0.004891

 21 O s       :     3.854916  s :     3.854916
      pz      :     1.399418  p :     4.535353
      px      :     1.616672
      py      :     1.519264
      dz2     :     0.006626  d :     0.028058
      dxz     :     0.004349
      dyz     :     0.005669
      dx2y2   :     0.005282
      dxy     :     0.006131

 22 H s       :     0.864658  s :     0.864658
      pz      :     0.006424  p :     0.011008
      px      :     0.002514
      py      :     0.002070

 23 H s       :     0.731405  s :     0.731405
      pz      :     0.007541  p :     0.023929
      px      :     0.008861
      py      :     0.007527



                     *******************************
                     * LOEWDIN POPULATION ANALYSIS *
                     *******************************

----------------------
LOEWDIN ATOMIC CHARGES
----------------------
   0 C :   -0.072962
   1 C :   -0.144585
   2 H :    0.119357
   3 H :    0.120207
   4 N :   -0.267283
   5 C :   -0.128062
   6 H :    0.062758
   7 H :    0.059726
   8 C :   -0.115573
   9 H :    0.069825
  10 H :    0.063285
  11 C :   -0.051078
  12 H :    0.074411
  13 H :    0.067770
  14 C :    0.100841
  15 H :    0.181690
  16 N :   -0.243388
  17 O :   -0.141111
  18 H :    0.065195
  19 H :    0.065004
  20 H :    0.127515
  21 O :   -0.223828
  22 H :    0.082259
  23 H :    0.128025

-------------------------------
LOEWDIN REDUCED ORBITAL CHARGES
-------------------------------
  0 C s       :     2.890753  s :     2.890753
      pz      :     1.081524  p :     3.066241
      px      :     1.014584
      py      :     0.970133
      dz2     :     0.021548  d :     0.115969
      dxz     :     0.012655
      dyz     :     0.017805
      dx2y2   :     0.032390
      dxy     :     0.031571

  1 C s       :     2.912122  s :     2.912122
      pz      :     1.056471  p :     3.150813
      px      :     1.032536
      py      :     1.061805
      dz2     :     0.021512  d :     0.081650
      dxz     :     0.013702
      dyz     :     0.010335
      dx2y2   :     0.021161
      dxy     :     0.014939

  2 H s       :     0.802065  s :     0.802065
      pz      :     0.039194  p :     0.078578
      px      :     0.023738
      py      :     0.015646

  3 H s       :     0.799988  s :     0.799988
      pz      :     0.024884  p :     0.079805
      px      :     0.028941
      py      :     0.025980

  4 N s       :     3.196258  s :     3.196258
      pz      :     1.197991  p :     4.012789
      px      :     1.665539
      py      :     1.149259
      dz2     :     0.012289  d :     0.058236
      dxz     :     0.004480
      dyz     :     0.018276
      dx2y2   :     0.006579
      dxy     :     0.016612

  5 C s       :     2.897146  s :     2.897146
      pz      :     1.056947  p :     3.148535
      px      :     1.012233
      py      :     1.079355
      dz2     :     0.021823  d :     0.082381
      dxz     :     0.013633
      dyz     :     0.009840
      dx2y2   :     0.022087
      dxy     :     0.014998

  6 H s       :     0.897734  s :     0.897734
      pz      :     0.006948  p :     0.039507
      px      :     0.009932
      py      :     0.022627

  7 H s       :     0.901344  s :     0.901344
      pz      :     0.022605  p :     0.038930
      px      :     0.007365
      py      :     0.008959

  8 C s       :     2.903288  s :     2.903288
      pz      :     1.057288  p :     3.130686
      px      :     1.021069
      py      :     1.052329
      dz2     :     0.022332  d :     0.081600
      dxz     :     0.012931
      dyz     :     0.009182
      dx2y2   :     0.018460
      dxy     :     0.018695

  9 H s       :     0.888189  s :     0.888189
      pz      :     0.006864  p :     0.041986
      px      :     0.009139
      py      :     0.025982

 10 H s       :     0.897740  s :     0.897740
      pz      :     0.022900  p :     0.038975
      px      :     0.007031
      py      :     0.009044

 11 C s       :     2.881175  s :     2.881175
      pz      :     1.067632  p :     3.039163
      px      :     1.009015
      py      :     0.962516
      dz2     :     0.028454  d :     0.130740
      dxz     :     0.011075
      dyz     :     0.019123
      dx2y2   :     0.040298
      dxy     :     0.031789

 12 H s       :     0.885629  s :     0.885629
      pz      :     0.007126  p :     0.039959
      px      :     0.009676
      py      :     0.023157

 13 H s       :     0.892785  s :     0.892785
      pz      :     0.024230  p :     0.039445
      px      :     0.007255
      py      :     0.007959

 14 C s       :     2.857910  s :     2.857910
      pz      :     0.851398  p :     2.743307
      px      :     0.996622
      py      :     0.895288
      dz2     :     0.037896  d :     0.297941
      dxz     :     0.041456
      dyz     :     0.058448
      dx2y2   :     0.095442
      dxy     :     0.064700

 15 H s       :     0.702577  s :     0.702577
      pz      :     0.029113  p :     0.115733
      px      :     0.065046
      py      :     0.021574

 16 N s       :     3.195505  s :     3.195505
      pz      :     1.192596  p :     3.990102
      px      :     1.667599
      py      :     1.129906
      dz2     :     0.013094  d :     0.057781
      dxz     :     0.006789
      dyz     :     0.014511
      dx2y2   :     0.007913
      dxy     :     0.015474

 17 O s       :     3.470130  s :     3.470130
      pz      :     1.703485  p :     4.619980
      px      :     1.368583
      py      :     1.547912
      dz2     :     0.006698  d :     0.051001
      dxz     :     0.005689
      dyz     :     0.009950
      dx2y2   :     0.018325
      dxy     :     0.010339

 18 H s       :     0.897169  s :     0.897169
      pz      :     0.012517  p :     0.037635
      px      :     0.011492
      py      :     0.013626

 19 H s       :     0.897277  s :     0.897277
      pz      :     0.023436  p :     0.037719
      px      :     0.006525
      py      :     0.007758

 20 H s       :     0.793283  s :     0.793283
      pz      :     0.041361  p :     0.079202
      px      :     0.024069
      py      :     0.013773

 21 O s       :     3.554385  s :     3.554385
      pz      :     1.421472  p :     4.611397
      px      :     1.637071
      py      :     1.552854
      dz2     :     0.009291  d :     0.058046
      dxz     :     0.010436
      dyz     :     0.013823
      dx2y2   :     0.010377
      dxy     :     0.014119

 22 H s       :     0.878265  s :     0.878265
      pz      :     0.025045  p :     0.039476
      px      :     0.007390
      py      :     0.007041

 23 H s       :     0.793091  s :     0.793091
      pz      :     0.023545  p :     0.078883
      px      :     0.030315
      py      :     0.025024



                      *****************************
                      * MAYER POPULATION ANALYSIS *
                      *****************************

  NA   - Mulliken gross atomic population
  ZA   - Total nuclear charge
  QA   - Mulliken gross atomic charge
  VA   - Mayer's total valence
  BVA  - Mayer's bonded valence
  FA   - Mayer's free valence

  ATOM       NA         ZA         QA         VA         BVA        FA
  0 C      6.0853     6.0000    -0.0853     3.9168     3.9168    -0.0000
  1 C      6.1925     6.0000    -0.1925     3.8600     3.8600    -0.0000
  2 H      0.7689     1.0000     0.2311     0.9238     0.9238     0.0000
  3 H      0.7612     1.0000     0.2388     0.9254     0.9254    -0.0000
  4 N      7.5718     7.0000    -0.5718     2.8997     2.8997    -0.0000
  5 C      6.1796     6.0000    -0.1796     3.8790     3.8790    -0.0000
  6 H      0.9117     1.0000     0.0883     0.9549     0.9549    -0.0000
  7 H      0.9127     1.0000     0.0873     0.9579     0.9579     0.0000
  8 C      6.1916     6.0000    -0.1916     3.8799     3.8799    -0.0000
  9 H      0.8844     1.0000     0.1156     0.9770     0.9770    -0.0000
 10 H      0.9077     1.0000     0.0923     0.9563     0.9563     0.0000
 11 C      6.0485     6.0000    -0.0485     3.8623     3.8623     0.0000
 12 H      0.8814     1.0000     0.1186     0.9565     0.9565     0.0000
 13 H      0.8993     1.0000     0.1007     0.9574     0.9574    -0.0000
 14 C      5.5157     6.0000     0.4843     3.9596     3.9596     0.0000
 15 H      0.6824     1.0000     0.3176     0.9178     0.9178     0.0000
 16 N      7.5512     7.0000    -0.5512     2.9153     2.9153    -0.0000
 17 O      8.4551     8.0000    -0.4551     2.0303     2.0303    -0.0000
 18 H      0.8986     1.0000     0.1014     0.9493     0.9493     0.0000
 19 H      0.8969     1.0000     0.1031     0.9519     0.9519     0.0000
 20 H      0.7544     1.0000     0.2456     0.9303     0.9303     0.0000
 21 O      8.4183     8.0000    -0.4183     2.1172     2.1172    -0.0000
 22 H      0.8757     1.0000     0.1243     0.9513     0.9513    -0.0000
 23 H      0.7553     1.0000     0.2447     0.9208     0.9208     0.0000

  Mayer bond orders larger than 0.100000
B(  0-C ,  1-C ) :   0.9749 B(  0-C ,  4-N ) :   1.0413 B(  0-C , 18-H ) :   0.9512 
B(  0-C , 19-H ) :   0.9506 B(  1-C ,  5-C ) :   1.0028 B(  1-C ,  6-H ) :   0.9396 
B(  1-C ,  7-H ) :   0.9483 B(  2-H ,  4-N ) :   0.9145 B(  3-H ,  4-N ) :   0.9104 
B(  5-C ,  8-C ) :   1.0024 B(  5-C ,  9-H ) :   0.9285 B(  5-C , 10-H ) :   0.9490 
B(  8-C , 11-C ) :   0.9721 B(  8-C , 12-H ) :   0.9421 B(  8-C , 13-H ) :   0.9429 
B( 11-C , 14-C ) :   0.8976 B( 11-C , 16-N ) :   1.0502 B( 11-C , 22-H ) :   0.9230 
B( 14-C , 17-O ) :   1.0811 B( 14-C , 21-O ) :   1.9314 B( 15-H , 17-O ) :   0.8514 
B( 16-N , 20-H ) :   0.8995 B( 16-N , 23-H ) :   0.9080 

-------
TIMINGS
-------

Total SCF time: 0 days 0 hours 0 min 6 sec 

Total time                  ....       6.814 sec
Sum of individual times     ....       6.259 sec  ( 91.9%)

SCF preparation             ....       0.031 sec  (  0.5%)
Fock matrix formation       ....       6.124 sec  ( 89.9%)
  Startup                   ....       0.001 sec  (  0.0% of F)
  Split-RI-J                ....       2.336 sec  ( 38.1% of F)
  XC integration            ....       4.270 sec  ( 69.7% of F)
    Basis function eval.    ....       1.497 sec  ( 35.1% of XC)
    Density eval.           ....       0.947 sec  ( 22.2% of XC)
    XC-Functional eval.     ....       0.759 sec  ( 17.8% of XC)
    XC-Potential eval.      ....       0.954 sec  ( 22.3% of XC)
Diagonalization             ....       0.000 sec  (  0.0%)
Density matrix formation    ....       0.005 sec  (  0.1%)
Total Energy calculation    ....       0.001 sec  (  0.0%)
Population analysis         ....       0.018 sec  (  0.3%)
Orbital Transformation      ....       0.020 sec  (  0.3%)
Orbital Orthonormalization  ....       0.000 sec  (  0.0%)
DIIS solution               ....       0.045 sec  (  0.7%)
SOSCF solution              ....       0.015 sec  (  0.2%)
Finished LeanSCF after   6.8 sec

Maximum memory used throughout the entire LEANSCF-calculation: 23.0 MB



-------------------------------------------------------------------------------
                          DFT DISPERSION CORRECTION                            
-------------------------------------------------------------------------------
Active option DFTDOPT                   ...         2   
Final C6-coefficient scaling factor     ...     1.250
Final VDW-radii scaling factor          ...     1.100
Damping factor alpha                    ...    20.000
-------------------------   ----------------
Dispersion correction           -0.034350685
-------------------------   ----------------


-------------------------   --------------------
FINAL SINGLE POINT ENERGY      -496.713936502560
-------------------------   --------------------

------------------------------------------------------------------------------
                         ORCA SCF GRADIENT CALCULATION
------------------------------------------------------------------------------

Nuc. rep. gradient        (SHARK) ... done (  0.0 sec)
HCore & Overlap gradient  (SHARK) ... done (  0.2 sec)
Split-RIJ-J gradient      (SHARK) ... done (  0.7 sec)
XC gradient                       ... done (  3.0 sec)
Dispersion correction             ... done (  0.0 sec)

-------------------
DISPERSION GRADIENT
-------------------

   1   C   :    0.000150822   -0.000103724    0.000686268
   2   C   :   -0.001019081    0.000115897   -0.000893419
   3   H   :   -0.000696057   -0.000753152   -0.000106199
   4   H   :   -0.001374862   -0.000768140    0.000188924
   5   N   :   -0.000702375    0.000757520   -0.000056402
   6   C   :    0.001050568    0.000920671    0.001153166
   7   H   :   -0.000340982   -0.000093123    0.000635531
   8   H   :    0.000047325    0.000973616    0.000090867
   9   C   :   -0.000220249   -0.000446994   -0.001132773
  10   H   :    0.000714203    0.000294788   -0.000601364
  11   H   :   -0.000114114   -0.000391885    0.000014850
  12   C   :    0.000644447   -0.000039791    0.000816065
  13   H   :    0.000045055   -0.000280327    0.000578643
  14   H   :    0.000357419    0.000849335   -0.000072364
  15   C   :    0.000250679    0.000088754   -0.000485396
  16   H   :    0.000086149   -0.000353410    0.000172802
  17   N   :    0.000641513    0.000354910   -0.000302990
  18   O   :    0.000773023   -0.000130769   -0.000019472
  19   H   :   -0.000239628    0.000067657   -0.000739522
  20   H   :   -0.000916277    0.000555582    0.000598980
  21   H   :   -0.000010886   -0.001129950   -0.000220593
  22   O   :    0.000696673    0.000560919   -0.000268837
  23   H   :    0.000494692   -0.000221311   -0.000123631
  24   H   :   -0.000318057   -0.000827075    0.000086866

Difference to translation invariance:
           :    0.0000000000   -0.0000000000    0.0000000000

Difference to rotation invariance:
           :    0.0000000000    0.0000000000   -0.0000000000

Norm of the Dispersion gradient    ...    0.0048898114
RMS gradient                       ...    0.0005762698
MAX gradient                       ...    0.0013748623

------------------
CARTESIAN GRADIENT
------------------

   1   C   :   -0.002810256   -0.000317872   -0.005244574
   2   C   :    0.003508047    0.000109179    0.006919243
   3   H   :   -0.001757027    0.002580623   -0.003198607
   4   H   :   -0.002975714    0.003437344    0.000727863
   5   N   :    0.011363473    0.005149736    0.003227558
   6   C   :    0.000204025   -0.002819566   -0.007762908
   7   H   :   -0.003722912   -0.007142155   -0.001566428
   8   H   :   -0.000622047    0.001242431   -0.006768556
   9   C   :    0.004022180    0.001403336    0.007821372
  10   H   :    0.002787168    0.004582882    0.001393717
  11   H   :    0.000748543   -0.001278449    0.007332904
  12   C   :   -0.002169691    0.000405600   -0.002532155
  13   H   :   -0.002336084   -0.005207387   -0.001148915
  14   H   :   -0.001774410    0.000897731   -0.006712901
  15   C   :    0.006563128   -0.000141030    0.006812727
  16   H   :   -0.002389319    0.004649355   -0.003723459
  17   N   :    0.010143232    0.003879956    0.003373289
  18   O   :    0.000545140   -0.025532108    0.014371268
  19   H   :    0.002485892   -0.005278886   -0.001284686
  20   H   :    0.000157348   -0.003806093    0.005077577
  21   H   :   -0.003361675    0.001056458   -0.002497070
  22   O   :   -0.016003877    0.021719488   -0.018771145
  23   H   :    0.000829208   -0.001783839    0.003629226
  24   H   :   -0.003434373    0.002193265    0.000524661

Difference to translation invariance:
           :   -0.0000000000   -0.0000000000    0.0000000000

Difference to rotation invariance:
           :   -0.0001528040   -0.0001362075   -0.0003098670

Norm of the Cartesian gradient     ...    0.0554434378
RMS gradient                       ...    0.0065340718
MAX gradient                       ...    0.0255321079

-------
TIMINGS
-------

Total SCF gradient time     ....        3.880 sec

Densities                   ....       0.000 sec  (  0.0%)
One electron gradient       ....       0.161 sec  (  4.1%)
RI-J Coulomb gradient       ....       0.727 sec  ( 18.7%)
XC gradient                 ....       2.992 sec  ( 77.1%)

Maximum memory used throughout the entire SCFGRAD-calculation: 29.1 MB
------------------------------------------------------------------------------
                         ORCA GEOMETRY RELAXATION STEP
------------------------------------------------------------------------------

Reading the OPT-File                    .... done
Getting information on internals        .... done
Copying old internal coords+grads       .... done
Making the new internal coordinates     .... (2022 redundants) done
Validating the new internal coordinates .... (2022 redundants) done
Calculating the B-matrix                .... done
Calculating the G,G- and P matrices     .... done
Transforming gradient to internals      .... done
Projecting the internal gradient        .... done
Number of atoms                         ....  24
Number of internal coordinates          .... 104
Current Energy                          ....  -496.713936503 Eh
Current gradient norm                   ....     0.055443438 Eh/bohr
Maximum allowed component of the step   ....  0.300
Current trust radius                    ....  0.300
Evaluating the initial hessian          ....  (Almloef) done
Projecting the Hessian                  .... done
Forming the augmented Hessian           .... done
Diagonalizing the augmented Hessian     .... done
Last element of RFO vector              ....  0.986500227
Lowest eigenvalues of augmented Hessian:
 -0.005839902  0.010543154  0.010613677  0.010952151  0.011421808
Length of the computed step             ....  0.166000865
The final length of the internal step   ....  0.166000865
Converting the step to Cartesian space:
 Initial RMS(Int)=    0.0162777241
Transforming coordinates:
 Iter   0:  RMS(Cart)=    0.0445566320 RMS(Int)=    0.0162945976
done
Storing new coordinates                 .... done

                                .--------------------.
          ----------------------|Geometry convergence|-------------------------
          Item                value                   Tolerance       Converged
          ---------------------------------------------------------------------
          RMS gradient        0.0052973158            0.0001000000      NO
          MAX gradient        0.0328324154            0.0003000000      NO
          RMS step            0.0162777241            0.0020000000      NO
          MAX step            0.0519046083            0.0040000000      NO
          -------------------------------------------------------------------------
          ........................................................
          Max(Bonds)      0.0172      Max(Angles)    1.58
          Max(Dihed)        2.97      Max(Improp)    0.00
          ---------------------------------------------------------------------

The optimization has not yet converged - more geometry cycles are needed


    ---------------------------------------------------------------------------
                         Redundant Internal Coordinates
                            (Angstroem and degrees)

        Definition                    Value    dE/dq     Step     New-Value
    ----------------------------------------------------------------------------
     1. B(C   1,C   0)                1.5379 -0.005970  0.0086    1.5465   
     2. B(N   4,H   2)                1.0149 -0.004001  0.0049    1.0198   
     3. B(N   4,C   0)                1.4500 -0.012910  0.0150    1.4650   
     4. B(N   4,H   3)                1.0140 -0.004004  0.0049    1.0190   
     5. B(C   5,C   1)                1.5267 -0.006750  0.0093    1.5360   
     6. B(H   6,C   1)                1.0922 -0.007982  0.0116    1.1038   
     7. B(H   7,C   1)                1.0936 -0.006811  0.0100    1.1036   
     8. B(C   8,C   5)                1.5257 -0.008597  0.0118    1.5375   
     9. B(H   9,C   5)                1.0910 -0.005167  0.0075    1.0985   
    10. B(H  10,C   5)                1.0922 -0.007393  0.0108    1.1030   
    11. B(C  11,C   8)                1.5382 -0.009820  0.0141    1.5523   
    12. B(H  12,C   8)                1.0912 -0.005532  0.0080    1.0992   
    13. B(H  13,C   8)                1.0928 -0.006843  0.0100    1.1028   
    14. B(C  14,C  11)                1.5234 -0.011095  0.0151    1.5385   
    15. B(N  16,C  11)                1.4493 -0.007562  0.0088    1.4580   
    16. B(O  17,H  15)                0.9710 -0.002928  0.0031    0.9740   
    17. B(O  17,C  14)                1.3372 -0.022208  0.0172    1.3544   
    18. B(H  18,C   0)                1.0943 -0.005409  0.0079    1.1022   
    19. B(H  19,C   0)                1.0934 -0.006021  0.0088    1.1022   
    20. B(H  20,N  16)                1.0162 -0.003271  0.0040    1.0202   
    21. B(O  21,C  14)                1.2029 -0.032832  0.0155    1.2185   
    22. B(H  22,C  11)                1.0955 -0.004007  0.0059    1.1014   
    23. B(H  23,N  16)                1.0145 -0.003420  0.0042    1.0187   
    24. A(C   1,C   0,H  19)          109.40  0.000914   -0.39    109.01   
    25. A(C   1,C   0,N   4)          115.68 -0.001107    0.33    116.01   
    26. A(N   4,C   0,H  18)          107.20 -0.001033    0.50    107.70   
    27. A(C   1,C   0,H  18)          108.90  0.000142    0.13    109.03   
    28. A(H  18,C   0,H  19)          107.92  0.001559   -0.68    107.24   
    29. A(N   4,C   0,H  19)          107.47 -0.000316    0.04    107.51   
    30. A(C   5,C   1,H   6)          109.43  0.000129    0.18    109.61   
    31. A(C   5,C   1,H   7)          109.51 -0.000428   -0.10    109.41   
    32. A(C   0,C   1,H   6)          108.52 -0.000950    0.43    108.94   
    33. A(C   0,C   1,C   5)          112.51 -0.000760    0.24    112.75   
    34. A(H   6,C   1,H   7)          107.70  0.001319   -0.54    107.16   
    35. A(C   0,C   1,H   7)          109.05  0.000784   -0.24    108.81   
    36. A(C   0,N   4,H   3)          110.38  0.000470   -0.29    110.09   
    37. A(C   0,N   4,H   2)          110.13  0.000329   -0.27    109.86   
    38. A(H   2,N   4,H   3)          107.67  0.001507   -0.75    106.92   
    39. A(C   8,C   5,H  10)          109.26  0.000350   -0.17    109.09   
    40. A(C   1,C   5,H  10)          109.36  0.000796   -0.10    109.27   
    41. A(C   8,C   5,H   9)          108.00  0.000129    0.16    108.16   
    42. A(C   1,C   5,H   9)          110.43  0.001432   -0.13    110.30   
    43. A(C   1,C   5,C   8)          111.76 -0.003604    0.71    112.47   
    44. A(H   9,C   5,H  10)          107.94  0.001034   -0.52    107.42   
    45. A(H  12,C   8,H  13)          108.34  0.001074   -0.73    107.62   
    46. A(C  11,C   8,H  12)          109.04  0.001858   -0.22    108.82   
    47. A(C  11,C   8,H  13)          108.62  0.001331   -0.33    108.29   
    48. A(C   5,C   8,H  13)          109.57  0.001281    0.02    109.59   
    49. A(C   5,C   8,H  12)          110.19  0.002604   -0.29    109.90   
    50. A(C   5,C   8,C  11)          111.03 -0.007954    1.49    112.52   
    51. A(C  14,C  11,N  16)          112.44  0.000120    0.27    112.71   
    52. A(C   8,C  11,N  16)          110.02 -0.001068    0.49    110.51   
    53. A(C   8,C  11,C  14)          108.34 -0.000969    0.45    108.78   
    54. A(N  16,C  11,H  22)          108.82  0.000070   -0.27    108.55   
    55. A(C  14,C  11,H  22)          108.28 -0.000141   -0.31    107.97   
    56. A(C   8,C  11,H  22)          108.89  0.002086   -0.68    108.20   
[...]
      dz2     :     0.003586  d :     0.023114
      dxz     :     0.003674
      dyz     :     0.005286
      dx2y2   :     0.007648
      dxy     :     0.002919

 18 H s       :     0.885222  s :     0.885222
      pz      :     0.003682  p :     0.010630
      px      :     0.003366
      py      :     0.003582

 19 H s       :     0.884930  s :     0.884930
      pz      :     0.005883  p :     0.010663
      px      :     0.002408
      py      :     0.002372

 20 H s       :     0.729702  s :     0.729702
      pz      :     0.010700  p :     0.023650
      px      :     0.007972
      py      :     0.004978

 21 O s       :     3.870122  s :     3.870122
      pz      :     1.394413  p :     4.526949
      px      :     1.617061
      py      :     1.515475
      dz2     :     0.006886  d :     0.027324
      dxz     :     0.004539
      dyz     :     0.005449
      dx2y2   :     0.004817
      dxy     :     0.005633

 22 H s       :     0.862976  s :     0.862976
      pz      :     0.006378  p :     0.010886
      px      :     0.002432
      py      :     0.002076

 23 H s       :     0.732985  s :     0.732985
      pz      :     0.007720  p :     0.023611
      px      :     0.008673
      py      :     0.007218



                     *******************************
                     * LOEWDIN POPULATION ANALYSIS *
                     *******************************

----------------------
LOEWDIN ATOMIC CHARGES
----------------------
   0 C :   -0.071587
   1 C :   -0.145080
   2 H :    0.120982
   3 H :    0.121395
   4 N :   -0.274009
   5 C :   -0.129168
   6 H :    0.064804
   7 H :    0.060473
   8 C :   -0.116652
   9 H :    0.070055
  10 H :    0.064222
  11 C :   -0.049414
  12 H :    0.074418
  13 H :    0.068727
  14 C :    0.124615
  15 H :    0.183566
  16 N :   -0.251328
  17 O :   -0.159171
  18 H :    0.066905
  19 H :    0.065658
  20 H :    0.129546
  21 O :   -0.231335
  22 H :    0.082921
  23 H :    0.129457

-------------------------------
LOEWDIN REDUCED ORBITAL CHARGES
-------------------------------
  0 C s       :     2.901090  s :     2.901090
      pz      :     1.083965  p :     3.060671
      px      :     1.013881
      py      :     0.962825
      dz2     :     0.020317  d :     0.109826
      dxz     :     0.011840
      dyz     :     0.017499
      dx2y2   :     0.030322
      dxy     :     0.029847

  1 C s       :     2.920083  s :     2.920083
      pz      :     1.055647  p :     3.145615
      px      :     1.029306
      py      :     1.060662
      dz2     :     0.021414  d :     0.079382
      dxz     :     0.013263
      dyz     :     0.009444
      dx2y2   :     0.020810
      dxy     :     0.014451

  2 H s       :     0.802360  s :     0.802360
      pz      :     0.038256  p :     0.076658
      px      :     0.022837
      py      :     0.015566

  3 H s       :     0.800484  s :     0.800484
      pz      :     0.024178  p :     0.078121
      px      :     0.029367
      py      :     0.024576

  4 N s       :     3.223360  s :     3.223360
      pz      :     1.196911  p :     3.993816
      px      :     1.654614
      py      :     1.142291
      dz2     :     0.011611  d :     0.056833
      dxz     :     0.005629
      dyz     :     0.016826
      dx2y2   :     0.005916
      dxy     :     0.016851

  5 C s       :     2.905360  s :     2.905360
      pz      :     1.056083  p :     3.143853
      px      :     1.010851
      py      :     1.076919
      dz2     :     0.021322  d :     0.079954
      dxz     :     0.013029
      dyz     :     0.009589
      dx2y2   :     0.020852
      dxy     :     0.015162

  6 H s       :     0.897070  s :     0.897070
      pz      :     0.006593  p :     0.038126
      px      :     0.009250
      py      :     0.022283

  7 H s       :     0.901853  s :     0.901853
      pz      :     0.022413  p :     0.037674
      px      :     0.006965
      py      :     0.008296

  8 C s       :     2.912493  s :     2.912493
      pz      :     1.056519  p :     3.125236
      px      :     1.018344
      py      :     1.050373
      dz2     :     0.021561  d :     0.078922
      dxz     :     0.012452
      dyz     :     0.008849
      dx2y2   :     0.017376
      dxy     :     0.018685

  9 H s       :     0.889210  s :     0.889210
      pz      :     0.006646  p :     0.040735
      px      :     0.009102
      py      :     0.024987

 10 H s       :     0.898134  s :     0.898134
      pz      :     0.022465  p :     0.037644
      px      :     0.006527
      py      :     0.008653

 11 C s       :     2.891732  s :     2.891732
      pz      :     1.069005  p :     3.032592
      px      :     1.004258
      py      :     0.959330
      dz2     :     0.027294  d :     0.125090
      dxz     :     0.010576
      dyz     :     0.018321
      dx2y2   :     0.038453
      dxy     :     0.030446

 12 H s       :     0.886690  s :     0.886690
      pz      :     0.006789  p :     0.038892
      px      :     0.009510
      py      :     0.022593

 13 H s       :     0.893038  s :     0.893038
      pz      :     0.023717  p :     0.038234
      px      :     0.006755
      py      :     0.007762

 14 C s       :     2.873967  s :     2.873967
      pz      :     0.855073  p :     2.723893
      px      :     0.991115
      py      :     0.877706
      dz2     :     0.038010  d :     0.277525
      dxz     :     0.042896
      dyz     :     0.056076
      dx2y2   :     0.084392
      dxy     :     0.056151

 15 H s       :     0.702426  s :     0.702426
      pz      :     0.029744  p :     0.114007
      px      :     0.063175
      py      :     0.021088

 16 N s       :     3.220366  s :     3.220366
      pz      :     1.186941  p :     3.973754
      px      :     1.657473
      py      :     1.129341
      dz2     :     0.011159  d :     0.057207
      dxz     :     0.009098
      dyz     :     0.014006
      dx2y2   :     0.007808
      dxy     :     0.015136

 17 O s       :     3.497063  s :     3.497063
      pz      :     1.693291  p :     4.613497
      px      :     1.369007
      py      :     1.551200
      dz2     :     0.006120  d :     0.048611
      dxz     :     0.006834
      dyz     :     0.010048
      dx2y2   :     0.016531
      dxy     :     0.009079

 18 H s       :     0.896092  s :     0.896092
      pz      :     0.012500  p :     0.037003
      px      :     0.011335
      py      :     0.013168

 19 H s       :     0.897472  s :     0.897472
      pz      :     0.022834  p :     0.036870
      px      :     0.006345
      py      :     0.007691

 20 H s       :     0.792729  s :     0.792729
      pz      :     0.039451  p :     0.077725
      px      :     0.024273
      py      :     0.014001

 21 O s       :     3.569005  s :     3.569005
      pz      :     1.423730  p :     4.606647
      px      :     1.637483
      py      :     1.545434
      dz2     :     0.009526  d :     0.055683
      dxz     :     0.011061
      dyz     :     0.013544
      dx2y2   :     0.009049
      dxy     :     0.012503

 22 H s       :     0.878157  s :     0.878157
      pz      :     0.024854  p :     0.038922
      px      :     0.007007
      py      :     0.007060

 23 H s       :     0.793400  s :     0.793400
      pz      :     0.024121  p :     0.077143
      px      :     0.029589
      py      :     0.023433



                      *****************************
                      * MAYER POPULATION ANALYSIS *
                      *****************************

  NA   - Mulliken gross atomic population
  ZA   - Total nuclear charge
  QA   - Mulliken gross atomic charge
  VA   - Mayer's total valence
  BVA  - Mayer's bonded valence
  FA   - Mayer's free valence

  ATOM       NA         ZA         QA         VA         BVA        FA
  0 C      6.0881     6.0000    -0.0881     3.9076     3.9076     0.0000
  1 C      6.1952     6.0000    -0.1952     3.8578     3.8578    -0.0000
  2 H      0.7697     1.0000     0.2303     0.9226     0.9226    -0.0000
  3 H      0.7617     1.0000     0.2383     0.9256     0.9256     0.0000
  4 N      7.5696     7.0000    -0.5696     2.8944     2.8944     0.0000
  5 C      6.1812     6.0000    -0.1812     3.8760     3.8760    -0.0000
  6 H      0.9096     1.0000     0.0904     0.9552     0.9552    -0.0000
  7 H      0.9116     1.0000     0.0884     0.9575     0.9575    -0.0000
  8 C      6.1866     6.0000    -0.1866     3.8711     3.8711    -0.0000
  9 H      0.8856     1.0000     0.1144     0.9760     0.9760    -0.0000
 10 H      0.9070     1.0000     0.0930     0.9558     0.9558    -0.0000
 11 C      6.0504     6.0000    -0.0504     3.8568     3.8568    -0.0000
 12 H      0.8831     1.0000     0.1169     0.9561     0.9561    -0.0000
 13 H      0.8983     1.0000     0.1017     0.9573     0.9573    -0.0000
 14 C      5.5095     6.0000     0.4905     3.9249     3.9249     0.0000
 15 H      0.6805     1.0000     0.3195     0.9165     0.9165    -0.0000
 16 N      7.5503     7.0000    -0.5503     2.9052     2.9052    -0.0000
 17 O      8.4622     8.0000    -0.4622     2.0269     2.0269    -0.0000
 18 H      0.8959     1.0000     0.1041     0.9498     0.9498    -0.0000
 19 H      0.8956     1.0000     0.1044     0.9515     0.9515     0.0000
 20 H      0.7534     1.0000     0.2466     0.9300     0.9300    -0.0000
 21 O      8.4244     8.0000    -0.4244     2.1084     2.1084    -0.0000
 22 H      0.8739     1.0000     0.1261     0.9512     0.9512    -0.0000
 23 H      0.7566     1.0000     0.2434     0.9187     0.9187    -0.0000

  Mayer bond orders larger than 0.100000
B(  0-C ,  1-C ) :   0.9720 B(  0-C ,  4-N ) :   1.0344 B(  0-C , 18-H ) :   0.9505 
B(  0-C , 19-H ) :   0.9503 B(  1-C ,  5-C ) :   0.9999 B(  1-C ,  6-H ) :   0.9386 
B(  1-C ,  7-H ) :   0.9471 B(  2-H ,  4-N ) :   0.9134 B(  3-H ,  4-N ) :   0.9080 
B(  5-C ,  8-C ) :   0.9996 B(  5-C ,  9-H ) :   0.9275 B(  5-C , 10-H ) :   0.9478 
B(  8-C , 11-C ) :   0.9672 B(  8-C , 12-H ) :   0.9414 B(  8-C , 13-H ) :   0.9423 
B( 11-C , 14-C ) :   0.8967 B( 11-C , 16-N ) :   1.0447 B( 11-C , 22-H ) :   0.9231 
B( 14-C , 17-O ) :   1.0671 B( 14-C , 21-O ) :   1.9085 B( 15-H , 17-O ) :   0.8521 
B( 16-N , 20-H ) :   0.8967 B( 16-N , 23-H ) :   0.9075 

-------
TIMINGS
-------

Total SCF time: 0 days 0 hours 0 min 3 sec 

Total time                  ....       3.695 sec
Sum of individual times     ....       3.178 sec  ( 86.0%)

SCF preparation             ....       0.032 sec  (  0.9%)
Fock matrix formation       ....       3.091 sec  ( 83.7%)
  Startup                   ....       0.001 sec  (  0.0% of F)
  Split-RI-J                ....       1.211 sec  ( 39.2% of F)
  XC integration            ....       2.322 sec  ( 75.1% of F)
    Basis function eval.    ....       0.870 sec  ( 37.5% of XC)
    Density eval.           ....       0.518 sec  ( 22.3% of XC)
    XC-Functional eval.     ....       0.449 sec  ( 19.3% of XC)
    XC-Potential eval.      ....       0.421 sec  ( 18.1% of XC)
Diagonalization             ....       0.000 sec  (  0.0%)
Density matrix formation    ....       0.002 sec  (  0.1%)
Total Energy calculation    ....       0.001 sec  (  0.0%)
Population analysis         ....       0.023 sec  (  0.6%)
Orbital Transformation      ....       0.007 sec  (  0.2%)
Orbital Orthonormalization  ....       0.000 sec  (  0.0%)
DIIS solution               ....       0.005 sec  (  0.1%)
SOSCF solution              ....       0.018 sec  (  0.5%)
Finished LeanSCF after   3.7 sec

Maximum memory used throughout the entire LEANSCF-calculation: 23.5 MB



-------------------------------------------------------------------------------
                          DFT DISPERSION CORRECTION                            
-------------------------------------------------------------------------------
Active option DFTDOPT                   ...         2   
Final C6-coefficient scaling factor     ...     1.250
Final VDW-radii scaling factor          ...     1.100
Damping factor alpha                    ...    20.000
-------------------------   ----------------
Dispersion correction           -0.033856894
-------------------------   ----------------


-------------------------   --------------------
FINAL SINGLE POINT ENERGY      -496.718000408895
-------------------------   --------------------

                                *** OPTIMIZATION RUN DONE ***


------------------------------------------------------------------------------
                              ORCA PROPERTY CALCULATIONS
------------------------------------------------------------------------------

GBWName                                 ... 1.gbw
Number of atoms                         ...     24
Number of basis functions               ...    210
Max core memory                         ...   4096 MB

Electric properties:
Dipole moment                           ... YES
Quadrupole moment                       ...  NO
Static polarizability (Dipole/Dipole)   ...  NO
Static polarizability (Dipole/Quad.)    ...  NO
Static polarizability (Quad./Quad.)     ...  NO
Static polarizability (Velocity)        ...  NO
Static hyperpolarizability              ...  NO

Atomic electric properties:
Dipole moment                           ...  NO
Quadrupole moment                       ...  NO
Static polarizability                   ...  NO

Choice of electric origin               ... Center of mass
Position of electric origin             ...   -20.065149    11.008381     1.022250

General magnetic properties:
Magnetizability                         ...  NO

EPR properties:
g-Tensor (aka g-matrix)                 ...  NO
Zero-Field splitting spin-orbit         ...  NO
Zero-field splitting spin-spin          ...  NO
Hyperfine couplings                     ...  NO (   0 nuclei)
Quadrupole couplings                    ...  NO (   0 nuclei)
Contact density                         ...  NO (   0 nuclei)

NMR properties:
Chemical shifts                         ...  NO (   0 nuclei)
Spin-rotation constants                 ...  NO (   0 nuclei)
Spin-spin couplings                     ...  NO (   0 nuclei,    0 pairs)

Choice of magnetic origin               ... GIAO
Position of magnetic origin             ...     0.000000     0.000000     0.000000

Properties with geometric perturbations:
SCF Hessian                             ...  NO
IR spectrum                             ...  NO
VCD spectrum                            ...  NO
X-ray spectroscopy properties:
SCF XES/XAS/RIXS spectra                ...  NO

SCF SOC stabilization energy            ...  NO
Diagonal Born-Oppenheimer correction    ...  NO

-------------
DIPOLE MOMENT
-------------

Method             : SCF
Type of density    : Electron Density
Multiplicity       :   1
Irrep              :   0
Energy             :  -496.6841435145357764 Eh
Basis              : AO
                                X                 Y                 Z
Electronic contribution:     14.135630506      -2.863296889      -1.177800277
Nuclear contribution   :    -13.374810482       3.141692760       1.098193170
                        -----------------------------------------
Total Dipole Moment    :      0.760820024       0.278395872      -0.079607106
                        -----------------------------------------
Magnitude (a.u.)       :      0.814056916
Magnitude (Debye)      :      2.069168240



--------------------
Rotational spectrum 
--------------------
 
Rotational constants in cm-1:             0.101642             0.015662             0.014405 
Rotational constants in MHz :          3047.148997           469.534526           431.841494 

Dipole components along the rotational axes: 
x,y,z [a.u.] :    -0.698519     0.417548    -0.020336 
x,y,z [Debye]:    -1.775494     1.061323    -0.051690 

 

Dipole moment calculation done in   0.0 sec 

Maximum memory used throughout the entire PROP-calculation: 13.2 MB

--------------------------------
SUGGESTED CITATIONS FOR THIS RUN
--------------------------------

Below you find a list of papers that are relevant to this ORCA run
We neither can nor want to force you to cite these papers, but we appreciate if you do
You receive ORCA, which is the product of decades of hard work by many enthusiastic individuals, for free
The only thing we kindly ask in return is that you cite our papers,
We deeply appreciate it, if you show your appreciation for ORCA by not just citing the generic ORCA reference.

Please note that relegating all ORCA citations to the supporting information does *not* help us.
SI sections are not indexed - citations you put there will not count into any citation statistics
But we need these citations in order to attract the funding resources that allow us to do what we are doing

Therefore, if you are a happy ORCA user, please consider citing a few of the papers listed below in the main body of your paper

In addition to the list printed below, the program has created the file 1.bibtex that contains the list in bibtex format
You can import this file easily into all common literature databanks and citation aid programs


List of essential papers. We consider these as the minimum necessary citations

  1. Neese, F.
     Software update: the ORCA program system, version 6.0
     WIRES Comput. Molec. Sci. 2025 15(1), e70019
     doi.org/10.1002/wcms.7019

List of papers to cite with high priority. The work reported in these papers was absolutely
necessary for this run to complete.
Our perspective: the developers of density functionals and basis sets usually get cited in chemistry papers
Good! But without the algorithms to do something with them, the functionals or basis sets would not do anything.
Hence, in our opinion, the algorithm design and method developments papers are equally worthy of getting cited

  1. Neese, F.
     An improvement of the resolution of the identity approximation for the formation of the Coulomb matrix
     J. Comp. Chem. 2003 24(14), 1740-1747
     doi.org/10.1002/jcc.10318
  2. Grimme, S.
     Semiempirical GGA-type density functional constructed with a long-range dispersion correction
     J.Comput.Chem. 2006 27(15), 1787-1799
     doi.org/10.1002/jcc.20495
  3. Neese, F.
     The SHARK Integral Generation and Digestion System
     J. Comp. Chem. 2022 44(3), 381
     doi.org/10.1002/jcc.26942

List of suggested additional citations. These are papers that are important in the 'surrounding' of 
of this run, or papers that preceded the highly important papers. If you like your results we are grateful for a citation.

  1. Neese, F.
     The ORCA program system
     WIRES Comput. Molec. Sci. 2012 2(1), 73-78
     doi.org/10.1002/wcms.81
  2. Neese, F.
     Software update: the ORCA program system, version 4.0
     WIRES Comput. Molec. Sci. 2018 8(1), 1-6
     doi.org/10.1002/wcms.1327
  3. Neese, F.; Wennmohs, F.; Becker, U.; Riplinger, C.
     The ORCA quantum chemistry program package
     J. Chem. Phys. 2020 152(22), 224108
     doi.org/10.1063/5.0004608
  4. Neese, F.
     Software update: The ORCA program system—Version 5.0
     WIRES Comput. Molec. Sci. 2022 12(1), e1606
     doi.org/10.1002/wcms.1606

List of optional additional citations

  1. Neese, F.
     Approximate second-order SCF convergence for spin unrestricted wavefunctions
     Chem. Phys. Lett. 2000 325(1-3), 93-98
     doi.org/10.1016/s0009-2614(00)00662-x

Timings for individual modules:

Sum of individual times          ...      100.937 sec (=   1.682 min)
Startup calculation              ...        5.763 sec (=   0.096 min)   5.7 %
SCF iterations                   ...       56.407 sec (=   0.940 min)  55.9 %
Property calculations            ...        0.039 sec (=   0.001 min)   0.0 %
SCF Gradient evaluation          ...       38.705 sec (=   0.645 min)  38.3 %
Geometry relaxation              ...        0.022 sec (=   0.000 min)   0.0 %
                             ****ORCA TERMINATED NORMALLY****
TOTAL RUN TIME: 0 days 0 hours 1 minutes 41 seconds 227 msec
