
                                 *****************
                                 * O   R   C   A *
                                 *****************

                                            #,                                       
                                            ###                                      
                                            ####                                     
                                            #####                                    
                                            ######                                   
                                           ########,                                 
                                     ,,################,,,,,                         
                               ,,#################################,,                 
                          ,,##########################################,,             
                       ,#########################################, ''#####,          
                    ,#############################################,,   '####,        
                  ,##################################################,,,,####,       
                ,###########''''           ''''###############################       
              ,#####''   ,,,,##########,,,,          '''####'''          '####       
            ,##' ,,,,###########################,,,                        '##       
           ' ,,###''''                  '''############,,,                           
         ,,##''                                '''############,,,,        ,,,,,,###''
      ,#''                                            '''#######################'''  
     '                                                          ''''####''''         
             ,#######,   #######,   ,#######,      ##                                
            ,#'     '#,  ##    ##  ,#'     '#,    #''#        ,####,    ,#,          
            ##       ##  ##   ,#'  ##            #'  '#       #'       ,# #          
            ##       ##  #######   ##           ,######,      #####,      #          
            '#,     ,#'  ##    ##  '#,     ,#' ,#      #,     #,   #      #          
             '#######'   ##     ##  '#######'  #'      '#     '####' #    #          



                #########################################################
                #                        -***-                          #
                #          Department of theory and spectroscopy        #
                #                                                       #
                #                      Frank Neese                      #
                #                                                       #
                #     Directorship, Architecture, Infrastructure        #
                #                    SHARK, DRIVERS                     #
                #        Core code/Algorithms in most modules           #
                #                                                       #
                #        Max Planck Institute fuer Kohlenforschung      #
                #                Kaiser Wilhelm Platz 1                 #
                #                 D-45470 Muelheim/Ruhr                 #
                #                      Germany                          #
                #                                                       #
                #                  All rights reserved                  #
                #                        -***-                          #
                #########################################################


                         Program Version 6.1.0  -  RELEASE   -
                                (GIT: $679e74b$)
                          ($2025-06-10 18:02:51 +0200$)


 With contributions from (in alphabetic order):
[Max-Planck-Institut fuer Kohlenforschung]                               
  Daniel Aravena         : Magnetic Suceptibility                        
  Michael Atanasov       : Ab Initio Ligand Field Theory (pilot matlab implementation)
  Alexander A. Auer      : GIAO ZORA, VPT2 properties, NMR spectrum      
  Ute Becker             : All parallelization in ORCA, NUMFREQ, NUMCALC 
  Giovanni Bistoni       : ED, misc. LED, open-shell LED, HFLD           
  Dmytro Bykov           : pre 5.0 version of the SCF Hessian            
  Marcos Casanova-Páez   : Triplet and SCS-CIS(D). UHF-(DLPNO)-IP/EA/STEOM-CCSD. UHF-CVS-IP/STEOM-CCSD   
  Vijay G. Chilkuri      : MRCI spin determinant printing, contributions to CSF-ICE 
  Pauline Colinet        : FMM embedding                                 
  Dipayan Datta          : RHF DLPNO-CCSD density                        
  Achintya Kumar Dutta   : EOM-CC, STEOM-CC                              
  Nicolas Foglia         : Exact transition moments, OPA infrastructure, MCD improvements    
  Dmitry Ganyushin       : Spin-Orbit,Spin-Spin,Magnetic field MRCI      
  Miquel Garcia-Rates    : C-PCM and meta-GGA Hessian, CCSD/C-PCM, Gaussian charge scheme 
  Tiago L. C. Gouveia    : GS-ROHF, GS-ROCIS                             
  Yang Guo               : DLPNO-NEVPT2, F12-NEVPT2, CIM, IAO-localization        
  Andreas Hansen         : Spin unrestricted coupled pair/coupled cluster methods 
  Ingolf Harden          : AUTO-CI MPn and infrastructure                
  Benjamin Helmich-Paris : MC-RPA, TRAH-(SCF,CASSCF), AVAS, COSX integrals, SCF dyn. polar., MC-PDFT, srDFT 
  Lee Huntington         : MR-EOM, pCC                                   
  Robert Izsak           : Overlap fitted RIJCOSX, COSX-SCS-MP3, EOM     
  Riya Kayal             : Wick's Theorem for AUTO-CI, AUTO-CI UHF-CCSDT 
  Emily Kempfer          : AUTO-CI RHF CISDT and CCSDT, approximate NEVPT4
  Christian Kollmar      : KDIIS, OOCD, Brueckner-CCSD(T), CCSD density, CASPT2, CASPT2-K, improved NEVPT2 
  Axel Koslowski         : Symmetry handling                             
  Simone Kossmann        : meta-GGA functionals, TD-DFT gradient, OOMP2, (MP2 Hessian; deprecated post 5.0) 
  Lucas Lang             : DCDCAS, Hyperfine gauge corrections, ICE-SOC+SSC
  Marvin Lechner         : AUTO-CI (C++ implementation), FIC-MRCC        
  Spencer Leger          : CASSCF response                               
  Dagmar Lenk            : GEPOL surface, SMD, ORCA-2-JSON               
  Dimitrios Liakos       : Extrapolation schemes; Compound Job, Property file
  Dimitrios Manganas     : Further ROCIS development; embedding schemes. LFT, Crystal Embedding 
  Dimitrios Pantazis     : SARC Basis sets                               
  Anastasios Papadopoulos: AUTO-CI, single reference methods and gradients 
  Taras Petrenko         : pre 6.0 DFT Hessian and TD-DFT gradient,  ECA, NRVS 
  Petra Pikulova         : Analytic Raman intensities                    
  Peter Pinski           : DLPNO-MP2, DLPNO-MP2 Gradient                 
  Shashank Vittal Rao    : ES-AILFT, MagRelax                            
  Christoph Reimann      : Effective Core Potentials                     
  Marius Retegan         : Local ZFS, SOC                                
  Christoph Riplinger    : Optimizer, TS searches, QM/MM, DLPNO-CCSD(T), (RO)-DLPNO pert. Triples 
  Michael Roemelt        : Original ROCIS implementation, recursive CI coupling coefficients
  Masaaki Saitow         : Open-shell DLPNO-CCSD energy and density      
  Barbara Sandhoefer     : DKH picture change effects                    
  Yorick L. A. Schmerwitz: GMF and freeze-and-release deltaSCF, NEB S-IDPP initial path                    
  Kantharuban Sivalingam : CASSCF convergence/infrastructure, NEVPT2, NEVPT3, NEVPT4(SD), FIC-MRCI and CEPA variants
  Bernardo de Souza      : ESD, SOC TD-DFT                               
  Georgi L. Stoychev     : AutoAux, RI-MP2 NMR, DLPNO-MP2 response, X2C  
  Van Anh Tran           : RI-MP2 g-tensors                              
  Willem Van den Heuvel  : Paramagnetic NMR                              
  Zikuan Wang            : NOTCH, Electric field optimization            
  Frank Wennmohs         : Technical directorship and infrastructure     
  Hang Xu                : AUTO-CI-Response properties                   
                                                                         
[FACCTs GmbH]                                                            
  Markus Bursch, Nicolas Foglia, Miquel Garcia-Rates, Ingolf Harden, Hagen Neugebauer, Anastasios Papadopoulos, 
  Christoph Riplinger, Bernardo de Souza, Georgi L. Stoychev                                                    
                                                                 
  APM, various basis sets, CI-OPT, improved COSX, DLPNO-Multilevel,           
  DOCKER, DRACO, updates on ESD, Fragmentator, GOAT, IRC, LR-CPCM, L-BFGS, MBIS, meta-GGA TD-DFT gradient, ML-optimized integration grids, 
  MM, NACMEs, nearIR, NEB, NEB-TS, NL-DFT gradient (VV10), 2- and 3-layer-ONIOM, interface openCOSMO-RS, QMMM,   
  Crystal-QMMM, RESP, rigid body optimization, SF, symmetry and pop. for TD-DFT, various functionals, SOLVATOR                                   
                                                                         
[Other institutions]                                                     
  V. Asgeirsson          : NEB                                           
  Christoph Bannwarth    : sTDA-DFT, sTD-DFT, PBEh-3c, B97-3c, D3        
  Giovanni Bistoni       : ETS/NOCV, ADLD/ADEX, COVALED                  
  Martin Brehm           : Molecular dynamics                            
  Ronald Cardenas        : ETS/NOCV                                      
  Martina Colucci        : COVALED                                       
  Sebastian Ehlert       : rSCAN, r2SCAN, r2SCAN-3c, D4, dhf basis sets  
  Marvin Friede          : D4 for Fr, Ra, Ac-Lr                          
  Lars Goerigk           : TD-DFT with DH, B97 family of functionals     
  Stefan Grimme          : VdW corrections, initial TS optimization, DFT functionals, gCP, sTDA/sTD-DF 
  Waldemar Hujo          : DFT-NL                                        
  H. Jonsson             : NEB                                           
  Holger Kruse           : gCP                                           
  Marcel Mueller         : wB97X-3c, vDZP basis set                      
  Hagen Neugebauer       : wr2SCAN, Native XTB                           
  Gianluca Regni         : ADLD/ADEX                                     
  Tobias Risthaus        : pre 6.0 range-separated hybrid DFT and stability analysis
  Lukas Wittmann         : regularized MP2, r2SCAN double-hybrids, wr2SCAN        
                                                                         
We gratefully acknowledge several colleagues who have allowed us to      
interface, adapt or use parts of their codes:                            
  Ed Valeev, F. Pavosevic, A. Kumar             : LibInt (2-el integral package), F12 methods 
  Garnet Chan, S. Sharma, J. Yang, R. Olivares  : DMRG                   
  Ulf Ekstrom                                   : XCFun DFT Library      
  Mihaly Kallay                                 : mrcc  (arbitrary order and MRCC methods)
  Frank Weinhold                                : gennbo (NPA and NBO analysis)           
  Simon Mueller                                 : openCOSMO-RS                            
  Christopher J. Cramer and Donald G. Truhlar   : smd solvation model                     
  S Lehtola, MJT Oliveira, MAL Marques          : LibXC Library                           
  Liviu Ungur et al                             : ANISO software                          


 Your calculation uses the libint2 library for the computation of 2-el integrals
 For citations please refer to: http://libint.valeyev.net

 Your ORCA version has been built with support for libXC version: 7.0.0
 For citations please refer to: https://libxc.gitlab.io

 This ORCA versions uses:
   CBLAS   interface :  Fast vector & matrix operations
   LAPACKE interface :  Fast linear algebra routines
   SCALAPACK package :  Parallel linear algebra routines
   Shared memory     :  Shared parallel matrices
   BLAS/LAPACK       :  OpenBLAS 0.3.29  USE64BITINT DYNAMIC_ARCH NO_AFFINITY Haswell SINGLE_THREADED
        Core in use  :  Haswell
   Copyright (c) 2011-2014, The OpenBLAS Project


  ***********************************
  * Starting time: Sat Aug 30 15:50:22 2025
  * Host name:     chemlab03
  * Process ID:    80458
  * Working dir.:  /home/vivek/mm-project/vivek/xtb-goat/B97-D-opt/g/4
  ***********************************



***************************************
The coordinates will be read from file: /home/vivek/mm-project/vivek/xtb-goat/xtb-goat/g/G_CONF/4.xyz
***************************************


Your calculation utilizes empirical dispersion correction


Warning: RI is on but no J-basis has been assigned. Assigning Def2/J (nothing to worry about!)
================================================================================

----- Orbital basis set information -----
Your calculation utilizes the basis: 6-31G**
   H-He, Li-Ne : W. J. Hehre, R. Ditchfield and J.A. Pople, J. Chem. Phys. 56, 2257 (1972).
                 Note: He and Ne are unpublished basis sets taken from the Gaussian program.
                 Note: Li and B from J. D. Dill and J. A. Pople, J. Chem. Phys. 62, 2921 (1975).
   Na - Ar     : M. M. Francl, W. J. Pietro, W. J. Hehre, J. S. Binkley, M. S. Gordon, 
                 D. J. DeFrees and J. A. Pople, J. Chem. Phys. 77, 3654 (1982).
   K - Zn      : V. A. Rassolov, J. A. Pople, M. A. Ratner, and T. L. Windus, J. Chem. Phys. 109, 1223 (1998).

----- AuxJ basis set information -----
Your calculation utilizes the auxiliary basis: def2/J
   H-Rn: F. Weigend, Phys. Chem. Chem. Phys. 8, 1057 (2006).
   Fr-Lr: K. Eichkorn, F. Weigend, O. Treutler, R. Ahlrichs; Theor. Chem. Acc. 97, 119 (1997).

================================================================================
                                        WARNINGS
                       Please study these warnings very carefully!
================================================================================

WARNING: Old DensityContainer found on disk!
         Will remove this file - 
         If you want to keep old densities, please start your calculation with a different basename. 


WARNING: Geometry Optimization
  ===> : Switching off AutoStart
         For restart on a previous wavefunction, please use MOREAD

INFO   : The exchange functional is Grimme's B97(-D)
         As described in S. Grimme, J. Comput. Chem. 27, 1787 (2006).
         Note that this functional defaults to a pure GGA. 

INFO   : The correlation functional is Grimme's B97(-D)
         As described in S. Grimme, J. Comput. Chem. 27, 1787 (2006).

================================================================================
                                       INPUT FILE
================================================================================
NAME = 4.inp
|  1> ! B97-D 6-31G** opt
|  2> 
|  3> * xyzfile 0 1 /home/vivek/mm-project/vivek/xtb-goat/xtb-goat/g/G_CONF/4.xyz
|  4> 
|  5>                          ****END OF INPUT****
================================================================================

                       *****************************
                       * Geometry Optimization Run *
                       *****************************

Geometry optimization settings:
Update method            Update   .... BFGS
Choice of coordinates    CoordSys .... (2022) Redundant Internals
Initial Hessian          InHess   .... Almloef's Model
Max. no of cycles        MaxIter  .... 50

Convergence Tolerances:
Energy Change            TolE     ....  5.0000e-06 Eh
Max. Gradient            TolMAXG  ....  3.0000e-04 Eh/bohr
RMS Gradient             TolRMSG  ....  1.0000e-04 Eh/bohr
Max. Displacement        TolMAXD  ....  4.0000e-03 bohr
RMS Displacement         TolRMSD  ....  2.0000e-03 bohr
Strict Convergence                .... False

------------------------------------------------------------------------------
                        ORCA OPTIMIZATION COORDINATE SETUP
------------------------------------------------------------------------------

The optimization will be done in redundant internal coordinates (2022)
Making redundant internal coordinates   ...  (2022 redundants) done
Evaluating the initial hessian          ...  (Almloef) done
Evaluating the coordinates              ...  done
Calculating the B-matrix                .... done
Calculating the G-matrix                .... done
The number of degrees of freedom        ....   35

    -----------------------------------------------------------------
                    Redundant Internal Coordinates


    -----------------------------------------------------------------
         Definition                    Initial Value    Approx d2E/dq
    -----------------------------------------------------------------
      1. B(C   1,C   0)                  1.5139         0.396321   
      2. B(N   4,H   3)                  1.0138         0.426739   
      3. B(N   4,C   0)                  1.4485         0.451451   
      4. B(N   4,H   2)                  1.0133         0.427422   
      5. B(O   5,C   1)                  1.3373         0.679241   
      6. B(O   5,H   3)                  2.3385         0.010000   
      7. B(H   6,C   0)                  1.0934         0.355650   
      8. B(H   7,C   0)                  1.1073         0.337952   
      9. B(H   8,O   5)                  0.9701         0.500926   
     10. B(O   9,C   1)                  1.2008         1.121295   
     11. A(N   4,C   0,H   7)          114.2410         0.329127   
     12. A(C   1,C   0,H   7)          105.1816         0.324086   
     13. A(C   1,C   0,N   4)          112.4040         0.376833   
     14. A(H   6,C   0,H   7)          107.4691         0.287401   
     15. A(C   1,C   0,H   6)          108.0069         0.326818   
     16. A(N   4,C   0,H   6)          109.2313         0.331917   
     17. A(C   0,C   1,O   9)          124.5553         0.442646   
     18. A(C   0,C   1,O   5)          112.8374         0.404716   
     19. A(O   5,C   1,O   9)          122.5461         0.485222   
     20. A(C   0,N   4,H   3)          110.4396         0.339196   
     21. A(C   0,N   4,H   2)          110.4102         0.339286   
     22. A(H   2,N   4,H   3)          108.5619         0.301991   
     23. A(C   1,O   5,H   8)          110.0831         0.373571   
     24. D(O   5,C   1,C   0,N   4)     31.7502         0.011667   
     25. D(O   9,C   1,C   0,N   4)   -151.0397         0.011667   
     26. D(O   9,C   1,C   0,H   6)    -30.4673         0.011667   
     27. D(O   5,C   1,C   0,H   6)    152.3226         0.011667   
     28. D(O   5,C   1,C   0,H   7)    -93.1410         0.011667   
     29. D(H   2,N   4,C   0,H   6)     68.0196         0.017388   
     30. D(H   2,N   4,C   0,C   1)   -172.1162         0.017388   
     31. D(H   3,N   4,C   0,H   6)   -171.9044         0.017388   
     32. D(H   3,N   4,C   0,C   1)    -52.0402         0.017388   
     33. D(H   2,N   4,C   0,H   7)    -52.3620         0.017388   
     34. D(H   8,O   5,C   1,O   9)      2.4369         0.037955   
     35. D(H   8,O   5,C   1,C   0)    179.7112         0.037955   
    -----------------------------------------------------------------

Number of atoms                         .... 10
Number of degrees of freedom            .... 35


         *************************************************************
         *                GEOMETRY OPTIMIZATION CYCLE   1            *
         *************************************************************
---------------------------------
CARTESIAN COORDINATES (ANGSTROEM)
---------------------------------
  C     -4.926772   -1.269974   -0.160589
  C     -4.390950   -2.446882    0.626626
  H     -5.918950    0.482922    0.142048
  H     -6.122126   -0.612994    1.352980
  N     -5.453846   -0.227198    0.695472
  O     -5.051718   -2.649616    1.771415
  H     -4.107971   -0.863762   -0.760627
  H     -5.668527   -1.702367   -0.859804
  H     -4.679734   -3.413310    2.240019
  O     -3.503694   -3.166507    0.256688

----------------------------
CARTESIAN COORDINATES (A.U.)
----------------------------
  NO LB      ZA    FRAG     MASS         X           Y           Z
   0 C     6.0000    0    12.011   -9.310251   -2.399902   -0.303469
   1 C     6.0000    0    12.011   -8.297693   -4.623936    1.184152
   2 H     1.0000    0     1.008  -11.185194    0.912591    0.268432
   3 H     1.0000    0     1.008  -11.569141   -1.158390    2.556762
   4 N     7.0000    0    14.007  -10.306276   -0.429341    1.314252
   5 O     8.0000    0    15.999   -9.546363   -5.007048    3.347489
   6 H     1.0000    0     1.008   -7.762940   -1.632273   -1.437377
   7 H     1.0000    0     1.008  -10.711964   -3.217007   -1.624795
   8 H     1.0000    0     1.008   -8.843416   -6.450220    4.233022
   9 O     8.0000    0    15.999   -6.621021   -5.983830    0.485069

--------------------------------
INTERNAL COORDINATES (ANGSTROEM)
--------------------------------
 C      0   0   0     0.000000000000     0.00000000     0.00000000
 C      1   0   0     1.513910728489     0.00000000     0.00000000
 H      1   2   0     2.036823252426   139.83370475     0.00000000
 H      3   1   2     1.645803396808    66.19629926   338.25054573
 N      3   1   2     1.013346041480    41.79677347    11.33842708
 O      2   1   3     1.337256765153   112.83744760    26.05957271
 H      1   2   3     1.093384552179   108.00689452   126.26303628
 H      1   2   3     1.107279003563   105.18164611   240.79938553
 H      6   2   1     0.970149471144   110.08313498   179.71121385
 O      2   1   3     1.200807575365   124.55525398   203.26971285

---------------------------
INTERNAL COORDINATES (A.U.)
---------------------------
 C      0   0   0     0.000000000000     0.00000000     0.00000000
 C      1   0   0     2.860876668050     0.00000000     0.00000000
 H      1   2   0     3.849038130288   139.83370475     0.00000000
 H      3   1   2     3.110117690244    66.19629926   338.25054573
 N      3   1   2     1.914946497291    41.79677347    11.33842708
 O      2   1   3     2.527049056873   112.83744760    26.05957271
 H      1   2   3     2.066197362679   108.00689452   126.26303628
 H      1   2   3     2.092454070576   105.18164611   240.79938553
 H      6   2   1     1.833316809431   110.08313498   179.71121385
 O      2   1   3     2.269197456977   124.55525398   203.26971285

---------------------
BASIS SET INFORMATION
---------------------
There are 4 groups of distinct atoms

 Group   1 Type C   : 10s4p1d contracted to 3s2p1d pattern {631/31/1}
 Group   2 Type H   : 4s1p contracted to 2s1p pattern {31/1}
 Group   3 Type N   : 10s4p1d contracted to 3s2p1d pattern {631/31/1}
 Group   4 Type O   : 10s4p1d contracted to 3s2p1d pattern {631/31/1}

Atom   0C    basis set group =>   1
Atom   1C    basis set group =>   1
Atom   2H    basis set group =>   2
Atom   3H    basis set group =>   2
Atom   4N    basis set group =>   3
Atom   5O    basis set group =>   4
Atom   6H    basis set group =>   2
Atom   7H    basis set group =>   2
Atom   8H    basis set group =>   2
Atom   9O    basis set group =>   4
---------------------------------
AUXILIARY/J BASIS SET INFORMATION
---------------------------------
There are 4 groups of distinct atoms

 Group   1 Type C   : 12s5p4d2f1g contracted to 6s4p3d1f1g pattern {711111/2111/211/2/1}
 Group   2 Type H   : 5s2p1d contracted to 3s1p1d pattern {311/2/1}
 Group   3 Type N   : 12s5p4d2f1g contracted to 6s4p3d1f1g pattern {711111/2111/211/2/1}
 Group   4 Type O   : 12s5p4d2f1g contracted to 6s4p3d1f1g pattern {711111/2111/211/2/1}

Atom   0C    basis set group =>   1
Atom   1C    basis set group =>   1
Atom   2H    basis set group =>   2
Atom   3H    basis set group =>   2
Atom   4N    basis set group =>   3
Atom   5O    basis set group =>   4
Atom   6H    basis set group =>   2
Atom   7H    basis set group =>   2
Atom   8H    basis set group =>   2
Atom   9O    basis set group =>   4
------------------------------------------------------------------------------
                             ORCA STARTUP CALCULATIONS
                           -- RI-GTO INTEGRALS CHOSEN --
------------------------------------------------------------------------------
------------------------------------------------------------------------------
                   ___                                                        
                  /   \      - P O W E R E D   B Y -                         
                 /     \                                                     
                 |  |  |   _    _      __       _____    __    __             
                 |  |  |  | |  | |    /  \     |  _  \  |  |  /  |          
                  \  \/   | |  | |   /    \    | | | |  |  | /  /          
                 / \  \   | |__| |  /  /\  \   | |_| |  |  |/  /          
                |  |  |   |  __  | /  /__\  \  |    /   |      \           
                |  |  |   | |  | | |   __   |  |    \   |  |\   \          
                \     /   | |  | | |  |  |  |  | |\  \  |  | \   \       
                 \___/    |_|  |_| |__|  |__|  |_| \__\ |__|  \__/        
                                                                              
                      - O R C A' S   B I G   F R I E N D -                    
                                      &                                       
                       - I N T E G R A L  F E E D E R -                       
                                                                              
 v1 FN, 2020, v2 2021, v3 2022-2024                                           
------------------------------------------------------------------------------


----------------------
SHARK INTEGRAL PACKAGE
----------------------

Number of atoms                             ...     10
Number of basis functions                   ...     95
Number of shells                            ...     45
Maximum angular momentum                    ...      2
Integral batch strategy                     ... SHARK/LIBINT Hybrid
RI-J (if used) integral strategy            ... SPLIT-RIJ (Revised 2003 algorithm where possible)
Printlevel                                  ...      1
Contraction scheme used                     ... SEGMENTED contraction
Prescreening option                         ... SCHWARTZ
   Thresh                                   ... 2.500e-11
   Tcut                                     ... 2.500e-12
   Tpresel                                  ... 2.500e-12 
Coulomb Range Separation                    ... NOT USED
Exchange Range Separation                   ... NOT USED
Multipole approximations                    ... NOT USED
Finite Nucleus Model                        ... NOT USED
CABS basis                                  ... NOT available
Auxiliary Coulomb fitting basis             ... AVAILABLE
   # of basis functions in Aux-J            ...    300
   # of shells in Aux-J                     ...    100
   Maximum angular momentum in Aux-J        ...      4
Auxiliary J/K fitting basis                 ... NOT available
Auxiliary Correlation fitting basis         ... NOT available
Auxiliary 'external' fitting basis          ... NOT available

Checking pre-screening integrals            ... done (  0.0 sec) Dimension = 45
   => SHARK Basis and OBASIS are compatible. Storing Pre-screening
Shell pair information
Shell pair cut-off parameter TPreSel        ...   2.5e-12
Total number of shell pairs                 ...      1035
Shell pairs after pre-screening             ...      1005
Total number of primitive shell pairs       ...      5170
Primitive shell pairs kept                  ...      3727
          la=0 lb=0:    312 shell pairs
          la=1 lb=0:    363 shell pairs
          la=1 lb=1:    117 shell pairs
          la=2 lb=0:    123 shell pairs
          la=2 lb=1:     75 shell pairs
          la=2 lb=2:     15 shell pairs

Checking whether 4 symmetric matrices of dimension 95 fit in memory
:Max Core in MB      =   4096.00
 MB in use           =      4.70
 MB left             =   4091.30
 MB needed           =      0.14
 Data fit in memory  = YES
Calculating RI/J V-Matrix + Cholesky decomp.... done (  0.0 sec)
Calculating Nuclear repulsion               ... done (  0.0 sec) ENN=    180.629628978599 Eh

Diagonalization of the overlap matrix:
Smallest eigenvalue                        ... 4.471e-03
Time for diagonalization                   ...    0.001 sec
Threshold for overlap eigenvalues          ... 1.000e-07
Number of eigenvalues below threshold      ... 0
Time for construction of square roots      ...    0.000 sec
Total time needed                          ...    0.001 sec

-------------------
DFT GRID GENERATION
-------------------

General Integration Accuracy     IntAcc      ... 4.388
Radial Grid Type                 RadialGrid  ... OptM3 with GC (2021)
Angular Grid (max. ang.)         AngularGrid ... 4 (Lebedev-302)
Angular grid pruning method      GridPruning ... 4 (adaptive)
Weight generation scheme         WeightScheme... mBecke (2022)
Basis function cutoff            BFCut       ... 1.0000e-11
Integration weight cutoff        WCut        ... 1.0000e-14
Partially contracted basis set               ... off
Rotationally invariant grid construction     ... off
Angular grids for H and He will be reduced by one unit

Total number of grid points                  ...    46671
Total number of batches                      ...      734
Average number of points per batch           ...       63
Average number of grid points per atom       ...     4667
Grids setup in   0.1 sec
Initializing property integral containers    ... done (  0.0 sec)

SHARK setup successfully completed in   0.2 seconds

Maximum memory used throughout the entire STARTUP-calculation: 19.9 MB
-------------------------------------------------------------------------------
                                 ORCA GUESS
                   Start orbitals & Density for SCF / CASSCF
-------------------------------------------------------------------------------

------------
SCF SETTINGS
------------
Hamiltonian:
 Density Functional     Method          .... DFT(GTOs)
 Exchange Functional    Exchange        .... B97(D)
 Correlation Functional Correlation     .... B97(D)
 Gradients option       PostSCFGGA      .... off
 RI-approximation to the Coulomb term is turned on
   Number of AuxJ basis functions       .... 300


General Settings:
 Integral files         IntName         .... 4
 Hartree-Fock type      HFTyp           .... RHF
 Total Charge           Charge          ....    0
 Multiplicity           Mult            ....    1
 Number of Electrons    NEL             ....   40
 Basis Dimension        Dim             ....   95
 Nuclear Repulsion      ENuc            ....    180.6296289786 Eh

Convergence Acceleration:
 AO-DIIS                CNVDIIS         .... on
   Start iteration      DIISMaxIt       ....    12
   Startup error        DIISStart       ....  0.200000
   # of expansion vecs  DIISMaxEq       ....     5
   Bias factor          DIISBfac        ....   1.050
   Max. coefficient     DIISMaxC        ....  10.000
 MO-DIIS                CNVKDIIS        .... off
 Trust-Rad. Augm. Hess. CNVTRAH         .... auto
   Auto Start mean grad. ratio tolernc. ....  1.125000
   Auto Start start iteration           ....    50
   Auto Start num. interpolation iter.  ....    10
   Max. Number of Micro iterations      ....    24
   Max. Number of Macro iterations      .... Maxiter - #DIIS iter
   Number of Davidson start vectors     ....     2
   Converg. threshold    (grad. norm)   ....   1.000e-05
   Grad. Scal. Fac. for Micro threshold ....   0.100
   Minimum threshold for Micro iter.    ....   1.000e-02
   NR start threshold (gradient norm)   ....   1.000e-04
   Initial trust radius                 ....   0.400
   Minimum AH scaling param. (alpha)    ....   1.000
   Maximum AH scaling param. (alpha)    .... 1000.000
   Quad. conv. algorithm                .... NR
   White noise on init. David. guess    .... on
   Maximum white noise                  ....   0.010
   Pseudo random numbers                .... off
   Inactive MOs                         .... canonical
   Orbital update algorithm             .... Taylor
   Preconditioner                       .... Diag
   Full preconditioner red. dimension   ....   250
 SOSCF                 CNVSOSCF           .... on
   Start iteration     SOSCFMaxIt         ....   150
   Startup grad/error  SOSCFStart         ....  0.003300
   Hessian update      SOSCFHessUp        .... L-BFGS
   Autom. constraints  SOSCFAutoConstrain .... off
 Level Shifting         CNVShift        .... on
   Level shift para.    LevelShift      ....    0.2500
   Turn off err/grad.   ShiftErr        ....    0.0010
 Zerner damping         CNVZerner       .... off
 Static damping         CNVDamp         .... on
   Fraction old density DampFac         ....    0.7000
   Max. Damping (<1)    DampMax         ....    0.9800
   Min. Damping (>=0)   DampMin         ....    0.0000
   Turn off err/grad.   DampErr         ....    0.1000

SCF Procedure:
 Maximum # iterations   MaxIter         ....   125
 SCF integral mode      SCFMode         .... Direct
   Integral package                     .... SHARK and LIBINT hybrid scheme
 Reset frequency        DirectResetFreq ....    20
 Integral Threshold     Thresh          ....  2.500e-11 Eh
 Primitive CutOff       TCut            ....  2.500e-12 Eh

Convergence Tolerance:
 Convergence Check Mode ConvCheckMode   .... Total+1el-Energy
 Convergence forced     ConvForced      .... 0
 Energy Change          TolE            ....  1.000e-08 Eh
 1-El. energy change                    ....  1.000e-05 Eh
 Orbital Gradient       TolG            ....  1.000e-05
 Orbital Rotation angle TolX            ....  1.000e-05
 DIIS Error             TolErr          ....  5.000e-07

------------------------------
INITIAL GUESS: MODEL POTENTIAL
------------------------------
Loading Hartree-Fock densities                     ... done
Calculating cut-offs                               ... done
Initializing the effective Hamiltonian             ... done
Setting up the integral package (SHARK)            ... done
Starting the Coulomb interaction                   ... done (   0.0 sec)
Making the grid                                    ... done (   0.0 sec)
Mapping shells                                     ... done
Starting the XC term evaluation                    ... done (   0.0 sec)
  promolecular density results
     # of electrons  =     39.996223660
     EX              =    -34.199843960
     EC              =     -1.793112400
     EX+EC           =    -35.992956360
Transforming the Hamiltonian                       ... done (   0.0 sec)
Diagonalizing the Hamiltonian                      ... done (   0.0 sec)
Back transforming the eigenvectors                 ... done (   0.0 sec)
Now organizing SCF variables                       ... done
                      ------------------
                      INITIAL GUESS DONE (   0.1 sec)
                      ------------------
             **** ENERGY FILE WAS UPDATED (4.en.tmp) ****
Finished Guess after   0.1 sec
Maximum memory used throughout the entire GUESS-calculation: 8.2 MB

-------------------------------------------------------------------------------------------
                                      ORCA LEAN-SCF
                              memory conserving SCF solver
-------------------------------------------------------------------------------------------

----------------------------------------D-I-I-S--------------------------------------------
Iteration    Energy (Eh)           Delta-E    RMSDP     MaxDP     DIISErr   Damp  Time(sec)
-------------------------------------------------------------------------------------------
               ***  Starting incremental Fock matrix formation  ***
    1    -284.0152252767953769     0.00e+00  5.82e-03  9.61e-02  2.62e-01  0.700   0.2
    2    -284.1306043556904797    -1.15e-01  3.48e-03  5.12e-02  9.72e-02  0.700   0.1
                               ***Turning on AO-DIIS***
    3    -284.1635730223836163    -3.30e-02  1.23e-03  2.07e-02  2.52e-02  0.700   0.1
    4    -284.1860589488184132    -2.25e-02  1.59e-03  2.45e-02  1.54e-02  0.000   0.1
    5    -284.2392807393193266    -5.32e-02  5.91e-04  1.16e-02  9.50e-03  0.000   0.1
                              *** Initializing SOSCF ***
---------------------------------------S-O-S-C-F--------------------------------------
Iteration    Energy (Eh)           Delta-E    RMSDP     MaxDP     MaxGrad    Time(sec)
--------------------------------------------------------------------------------------
    6    -284.2398060744870349    -5.25e-04  2.25e-04  4.27e-03  3.15e-03     0.1
               *** Restarting incremental Fock matrix formation ***
    7    -284.2398492479686070    -4.32e-05  1.86e-04  3.15e-03  6.36e-04     0.2
    8    -284.2398382542777426     1.10e-05  9.47e-05  1.65e-03  1.83e-03     0.1
    9    -284.2398548423989837    -1.66e-05  7.12e-05  1.36e-03  2.71e-04     0.1
   10    -284.2398536212352838     1.22e-06  3.60e-05  6.03e-04  2.99e-04     0.1
   11    -284.2398560454677181    -2.42e-06  1.36e-05  2.23e-04  5.21e-05     0.1
   12    -284.2398559842263808     6.12e-08  7.60e-06  1.40e-04  8.68e-05     0.1
   13    -284.2398560899239328    -1.06e-07  1.63e-06  2.03e-05  6.19e-06     0.1
   14    -284.2398560898482174     7.57e-11  8.20e-07  1.18e-05  6.26e-06     0.1
                 **** Energy Check signals convergence ****

               *****************************************************
               *                     SUCCESS                       *
               *           SCF CONVERGED AFTER  14 CYCLES          *
               *****************************************************

             **** ENERGY FILE WAS UPDATED (4.en.tmp) ****

----------------
TOTAL SCF ENERGY
----------------

Total Energy       :       -284.23985609069530 Eh           -7734.55970 eV

Components:
Nuclear Repulsion  :        180.62962897859950 Eh            4915.18209 eV
Electronic Energy  :       -464.86948506929480 Eh          -12649.74179 eV
One Electron Energy:       -745.81228702416342 Eh          -20294.58409 eV
Two Electron Energy:        280.94280195486863 Eh            7644.84230 eV

Virial components:
Potential Energy   :       -567.02825645292512 Eh          -15429.62328 eV
Kinetic Energy     :        282.78840036222982 Eh            7695.06358 eV
Virial Ratio       :          2.00513265652554

DFT components:
N(Alpha)           :       19.999986638083 electrons
N(Beta)            :       19.999986638083 electrons
N(Total)           :       39.999973276167 electrons
E(X)               :      -34.934157448656 Eh       
E(C)               :       -1.783302862712 Eh       
E(XC)              :      -36.717460311368 Eh       

---------------
SCF CONVERGENCE
---------------

  Last Energy change         ...   -7.5715e-11  Tolerance :   1.0000e-08
  Last MAX-Density change    ...    1.1773e-05  Tolerance :   1.0000e-07
  Last RMS-Density change    ...    8.2041e-07  Tolerance :   5.0000e-09
  Last DIIS Error            ...    3.1489e-03  Tolerance :   5.0000e-07
  Last Orbital Gradient      ...    6.2575e-06  Tolerance :   1.0000e-05
  Last Orbital Rotation      ...    5.7711e-06  Tolerance :   1.0000e-05


----------------
ORBITAL ENERGIES
----------------

  NO   OCC          E(Eh)            E(eV) 
   0   2.0000     -18.815974      -512.0087 
   1   2.0000     -18.750414      -510.2247 
   2   2.0000     -13.989204      -380.6656 
   3   2.0000     -10.032827      -273.0071 
   4   2.0000      -9.946448      -270.6566 
   5   2.0000      -1.022672       -27.8283 
   6   2.0000      -0.930881       -25.3305 
   7   2.0000      -0.812924       -22.1208 
   8   2.0000      -0.649113       -17.6633 
   9   2.0000      -0.561893       -15.2899 
  10   2.0000      -0.453126       -12.3302 
  11   2.0000      -0.431018       -11.7286 
  12   2.0000      -0.421475       -11.4689 
  13   2.0000      -0.400998       -10.9117 
  14   2.0000      -0.368894       -10.0381 
  15   2.0000      -0.345827        -9.4104 
  16   2.0000      -0.334793        -9.1102 
  17   2.0000      -0.273576        -7.4444 
  18   2.0000      -0.223864        -6.0916 
  19   2.0000      -0.190162        -5.1746 
  20   0.0000      -0.015445        -0.4203 
  21   0.0000       0.045218         1.2304 
  22   0.0000       0.081448         2.2163 
  23   0.0000       0.114343         3.1114 
  24   0.0000       0.131924         3.5898 
  25   0.0000       0.150940         4.1073 
  26   0.0000       0.192472         5.2374 
  27   0.0000       0.211821         5.7639 
  28   0.0000       0.277652         7.5553 
  29   0.0000       0.332425         9.0457 
  30   0.0000       0.509358        13.8603 
*Only the first 10 virtual orbitals were printed.

                    ********************************
                    * MULLIKEN POPULATION ANALYSIS *
                    ********************************

-----------------------
MULLIKEN ATOMIC CHARGES
-----------------------
   0 C :   -0.143427
   1 C :    0.515627
   2 H :    0.241772
   3 H :    0.252652
   4 N :   -0.584698
   5 O :   -0.456062
   6 H :    0.148367
   7 H :    0.115210
   8 H :    0.322280
   9 O :   -0.411720
Sum of atomic charges:   -0.0000000

--------------------------------
MULLIKEN REDUCED ORBITAL CHARGES
--------------------------------
  0 C s       :     3.205460  s :     3.205460
      pz      :     0.970742  p :     2.887595
      px      :     1.031550
      py      :     0.885303
      dz2     :     0.004361  d :     0.050372
      dxz     :     0.012310
      dyz     :     0.014751
      dx2y2   :     0.008122
      dxy     :     0.010827

  1 C s       :     2.971601  s :     2.971601
      pz      :     0.746691  p :     2.386833
      px      :     0.780549
      py      :     0.859593
      dz2     :     0.028056  d :     0.125939
      dxz     :     0.032340
      dyz     :     0.020896
      dx2y2   :     0.023963
      dxy     :     0.020684

  2 H s       :     0.734242  s :     0.734242
      pz      :     0.006923  p :     0.023987
      px      :     0.007551
      py      :     0.009512

  3 H s       :     0.723101  s :     0.723101
      pz      :     0.009509  p :     0.024247
      px      :     0.008744
      py      :     0.005994

  4 N s       :     3.609798  s :     3.609798
      pz      :     1.266417  p :     3.946975
      px      :     1.478395
      py      :     1.202162
      dz2     :     0.001883  d :     0.027925
      dxz     :     0.007642
      dyz     :     0.008248
      dx2y2   :     0.003750
      dxy     :     0.006402

  5 O s       :     3.818891  s :     3.818891
      pz      :     1.395484  p :     4.614627
      px      :     1.678148
      py      :     1.540995
      dz2     :     0.004560  d :     0.022544
      dxz     :     0.006105
      dyz     :     0.004249
      dx2y2   :     0.003521
      dxy     :     0.004110

  6 H s       :     0.840848  s :     0.840848
      pz      :     0.003478  p :     0.010785
      px      :     0.004940
      py      :     0.002367

  7 H s       :     0.873549  s :     0.873549
      pz      :     0.004161  p :     0.011241
      px      :     0.004135
      py      :     0.002945

  8 H s       :     0.639662  s :     0.639662
      pz      :     0.010836  p :     0.038057
      px      :     0.010268
      py      :     0.016953

  9 O s       :     3.856321  s :     3.856321
      pz      :     1.647093  p :     4.527108
      px      :     1.381447
      py      :     1.498568
      dz2     :     0.003522  d :     0.028291
      dxz     :     0.004934
      dyz     :     0.004242
      dx2y2   :     0.008916
      dxy     :     0.006676



                     *******************************
                     * LOEWDIN POPULATION ANALYSIS *
                     *******************************

----------------------
LOEWDIN ATOMIC CHARGES
----------------------
   0 C :   -0.089202
   1 C :    0.118732
   2 H :    0.125485
   3 H :    0.126763
   4 N :   -0.271449
   5 O :   -0.139381
   6 H :    0.090248
   7 H :    0.068478
   8 H :    0.184451
   9 O :   -0.214125

-------------------------------
LOEWDIN REDUCED ORBITAL CHARGES
-------------------------------
  0 C s       :     2.898780  s :     2.898780
      pz      :     1.032952  p :     3.078314
      px      :     1.063905
      py      :     0.981457
      dz2     :     0.008295  d :     0.112109
      dxz     :     0.026819
      dyz     :     0.035459
      dx2y2   :     0.017414
      dxy     :     0.024122

  1 C s       :     2.847562  s :     2.847562
      pz      :     0.879780  p :     2.734651
      px      :     0.907201
      py      :     0.947669
      dz2     :     0.066898  d :     0.299056
      dxz     :     0.081966
      dyz     :     0.047320
      dx2y2   :     0.052911
      dxy     :     0.049961

  2 H s       :     0.795519  s :     0.795519
      pz      :     0.023279  p :     0.078996
      px      :     0.024751
      py      :     0.030966

  3 H s       :     0.792798  s :     0.792798
      pz      :     0.030814  p :     0.080439
      px      :     0.031516
      py      :     0.018109

  4 N s       :     3.196596  s :     3.196596
      pz      :     1.299478  p :     4.017426
      px      :     1.476665
      py      :     1.241284
      dz2     :     0.004503  d :     0.057426
      dxz     :     0.014214
      dyz     :     0.018995
      dx2y2   :     0.007318
      dxy     :     0.012397

  5 O s       :     3.468727  s :     3.468727
      pz      :     1.419397  p :     4.620405
      px      :     1.670663
      py      :     1.530344
      dz2     :     0.011731  d :     0.050249
      dxz     :     0.014709
      dyz     :     0.011541
      dx2y2   :     0.005744
      dxy     :     0.006524

  6 H s       :     0.870797  s :     0.870797
      pz      :     0.012250  p :     0.038955
      px      :     0.018431
      py      :     0.008273

  7 H s       :     0.892316  s :     0.892316
      pz      :     0.014942  p :     0.039206
      px      :     0.014507
      py      :     0.009756

  8 H s       :     0.699636  s :     0.699636
      pz      :     0.031430  p :     0.115913
      px      :     0.030963
      py      :     0.053519

  9 O s       :     3.553084  s :     3.553084
      pz      :     1.636397  p :     4.602776
      px      :     1.435585
      py      :     1.530794
      dz2     :     0.007731  d :     0.058264
      dxz     :     0.010653
      dyz     :     0.007768
      dx2y2   :     0.013562
      dxy     :     0.018551



                      *****************************
                      * MAYER POPULATION ANALYSIS *
                      *****************************

  NA   - Mulliken gross atomic population
  ZA   - Total nuclear charge
  QA   - Mulliken gross atomic charge
  VA   - Mayer's total valence
  BVA  - Mayer's bonded valence
  FA   - Mayer's free valence

  ATOM       NA         ZA         QA         VA         BVA        FA
  0 C      6.1434     6.0000    -0.1434     3.8466     3.8466     0.0000
  1 C      5.4844     6.0000     0.5156     3.9970     3.9970    -0.0000
  2 H      0.7582     1.0000     0.2418     0.9183     0.9183    -0.0000
  3 H      0.7473     1.0000     0.2527     0.9233     0.9233    -0.0000
  4 N      7.5847     7.0000    -0.5847     2.8333     2.8333     0.0000
  5 O      8.4561     8.0000    -0.4561     2.0535     2.0535     0.0000
  6 H      0.8516     1.0000     0.1484     0.9457     0.9457    -0.0000
  7 H      0.8848     1.0000     0.1152     0.9401     0.9401     0.0000
  8 H      0.6777     1.0000     0.3223     0.9159     0.9159    -0.0000
  9 O      8.4117     8.0000    -0.4117     2.1143     2.1143    -0.0000

  Mayer bond orders larger than 0.100000
B(  0-C ,  1-C ) :   0.9503 B(  0-C ,  4-N ) :   1.0068 B(  0-C ,  6-H ) :   0.9393 
B(  0-C ,  7-H ) :   0.9148 B(  1-C ,  5-O ) :   1.0964 B(  1-C ,  9-O ) :   1.9340 
B(  2-H ,  4-N ) :   0.9083 B(  3-H ,  4-N ) :   0.8969 B(  5-O ,  8-H ) :   0.8500 


-------
TIMINGS
-------

Total SCF time: 0 days 0 hours 0 min 2 sec 

Total time                  ....       2.126 sec
Sum of individual times     ....       1.968 sec  ( 92.6%)

SCF preparation             ....       0.026 sec  (  1.2%)
Fock matrix formation       ....       1.926 sec  ( 90.6%)
  Startup                   ....       0.000 sec  (  0.0% of F)
  Split-RI-J                ....       0.432 sec  ( 22.4% of F)
  XC integration            ....       1.615 sec  ( 83.8% of F)
    Basis function eval.    ....       0.547 sec  ( 33.9% of XC)
    Density eval.           ....       0.280 sec  ( 17.3% of XC)
    XC-Functional eval.     ....       0.427 sec  ( 26.4% of XC)
    XC-Potential eval.      ....       0.311 sec  ( 19.3% of XC)
Diagonalization             ....       0.000 sec  (  0.0%)
Density matrix formation    ....       0.002 sec  (  0.1%)
Total Energy calculation    ....       0.000 sec  (  0.0%)
Population analysis         ....       0.001 sec  (  0.0%)
Orbital Transformation      ....       0.001 sec  (  0.1%)
Orbital Orthonormalization  ....       0.000 sec  (  0.0%)
DIIS solution               ....       0.006 sec  (  0.3%)
SOSCF solution              ....       0.004 sec  (  0.2%)
Finished LeanSCF after   2.1 sec

Maximum memory used throughout the entire LEANSCF-calculation: 10.2 MB



-------------------------------------------------------------------------------
                          DFT DISPERSION CORRECTION                            
-------------------------------------------------------------------------------
Active option DFTDOPT                   ...         2   
Final C6-coefficient scaling factor     ...     1.250
Final VDW-radii scaling factor          ...     1.100
Damping factor alpha                    ...    20.000
-------------------------   ----------------
Dispersion correction           -0.006851734
-------------------------   ----------------


-------------------------   --------------------
FINAL SINGLE POINT ENERGY      -284.246707825031
-------------------------   --------------------

------------------------------------------------------------------------------
                         ORCA SCF GRADIENT CALCULATION
------------------------------------------------------------------------------

Nuc. rep. gradient        (SHARK) ... done (  0.0 sec)
HCore & Overlap gradient  (SHARK) ... done (  0.0 sec)
Split-RIJ-J gradient      (SHARK) ... done (  0.2 sec)
XC gradient                       ... done (  0.7 sec)
Dispersion correction             ... done (  0.0 sec)

-------------------
DISPERSION GRADIENT
-------------------

   1   C   :   -0.000121241   -0.000002890    0.000425597
   2   C   :   -0.000170320    0.000474219   -0.000436702
   3   H   :   -0.000331069    0.000349280    0.000441869
   4   H   :    0.000072876    0.000108770    0.000071263
   5   N   :    0.000360197   -0.001161028   -0.000502828
   6   O   :   -0.000071900    0.000781486   -0.000314407
   7   H   :   -0.000522101   -0.000328448    0.000071642
   8   H   :    0.000620271    0.000279902   -0.000152199
   9   H   :    0.000326246   -0.000144901   -0.000305055
  10   O   :   -0.000162957   -0.000356390    0.000700820

Difference to translation invariance:
           :   -0.0000000000    0.0000000000    0.0000000000

Difference to rotation invariance:
           :    0.0000000000    0.0000000000   -0.0000000000

Norm of the Dispersion gradient    ...    0.0022960561
RMS gradient                       ...    0.0004192006
MAX gradient                       ...    0.0011610281

------------------
CARTESIAN GRADIENT
------------------

   1   C   :    0.005669458   -0.001771156   -0.000276940
   2   C   :    0.001178510   -0.007601296    0.004090660
   3   H   :    0.002654475   -0.001941965    0.001944505
   4   H   :    0.003900563    0.000300855   -0.000582141
   5   N   :   -0.002846385   -0.009079070   -0.007411883
   6   O   :    0.020754586   -0.005709324   -0.020659609
   7   H   :   -0.003301137    0.001881610    0.002555160
   8   H   :    0.001096599    0.002768177    0.004468110
   9   H   :   -0.004589513    0.003278973    0.003016305
  10   O   :   -0.024517155    0.017873196    0.012855832

Difference to translation invariance:
           :    0.0000000000   -0.0000000000   -0.0000000000

Difference to rotation invariance:
           :   -0.0001908063   -0.0000041557   -0.0000390331

Norm of the Cartesian gradient     ...    0.0485145437
RMS gradient                       ...    0.0088575033
MAX gradient                       ...    0.0245171545

-------
TIMINGS
-------

Total SCF gradient time     ....        0.854 sec

Densities                   ....       0.000 sec  (  0.0%)
One electron gradient       ....       0.022 sec  (  2.6%)
RI-J Coulomb gradient       ....       0.159 sec  ( 18.6%)
XC gradient                 ....       0.673 sec  ( 78.7%)

Maximum memory used throughout the entire SCFGRAD-calculation: 13.4 MB
------------------------------------------------------------------------------
                         ORCA GEOMETRY RELAXATION STEP
------------------------------------------------------------------------------

Reading the OPT-File                    .... done
Getting information on internals        .... done
Copying old internal coords+grads       .... done
Making the new internal coordinates     .... (2022 redundants) done
Validating the new internal coordinates .... (2022 redundants) done
Calculating the B-matrix                .... done
Calculating the G,G- and P matrices     .... done
Transforming gradient to internals      .... done
Projecting the internal gradient        .... done
Number of atoms                         ....  10
Number of internal coordinates          ....  35
Current Energy                          ....  -284.246707825 Eh
Current gradient norm                   ....     0.048514544 Eh/bohr
Maximum allowed component of the step   ....  0.300
Current trust radius                    ....  0.300
Evaluating the initial hessian          ....  (Almloef) done
Projecting the Hessian                  .... done
Forming the augmented Hessian           .... done
Diagonalizing the augmented Hessian     .... done
Last element of RFO vector              ....  0.992498935
Lowest eigenvalues of augmented Hessian:
 -0.003255299  0.011637352  0.015757469  0.019284245  0.037019297
Length of the computed step             ....  0.123177241
The final length of the internal step   ....  0.123177241
Converting the step to Cartesian space:
 Initial RMS(Int)=    0.0208207538
Transforming coordinates:
 Iter   0:  RMS(Cart)=    0.0232375303 RMS(Int)=    0.0208185412
done
Storing new coordinates                 .... done

                                .--------------------.
          ----------------------|Geometry convergence|-------------------------
          Item                value                   Tolerance       Converged
          ---------------------------------------------------------------------
          RMS gradient        0.0077380338            0.0001000000      NO
          MAX gradient        0.0327857022            0.0003000000      NO
          RMS step            0.0208207538            0.0020000000      NO
          MAX step            0.0815044757            0.0040000000      NO
          -------------------------------------------------------------------------
          ........................................................
          Max(Bonds)      0.0431      Max(Angles)    1.58
          Max(Dihed)        1.66      Max(Improp)    0.00
          ---------------------------------------------------------------------

The optimization has not yet converged - more geometry cycles are needed


    ---------------------------------------------------------------------------
                         Redundant Internal Coordinates
                            (Angstroem and degrees)

        Definition                    Value    dE/dq     Step     New-Value
    ----------------------------------------------------------------------------
     1. B(C   1,C   0)                1.5139 -0.007022  0.0106    1.5245   
     2. B(N   4,H   3)                1.0138 -0.003367  0.0040    1.0177   
     3. B(N   4,C   0)                1.4485 -0.011177  0.0138    1.4623   
     4. B(N   4,H   2)                1.0133 -0.003644  0.0045    1.0178   
     5. B(O   5,C   1)                1.3373 -0.022605  0.0176    1.3548   
     6. B(O   5,H   3)                2.3385 -0.002122  0.0431    2.3817   
     7. B(H   6,C   0)                1.0934 -0.003174  0.0047    1.0981   
     8. B(H   7,C   0)                1.1073 -0.004640  0.0072    1.1145   
     9. B(H   8,O   5)                0.9701 -0.002882  0.0030    0.9732   
    10. B(O   9,C   1)                1.2008 -0.032786  0.0154    1.2162   
    11. A(N   4,C   0,H   7)          114.24 -0.001943    0.55    114.79   
    12. A(C   1,C   0,H   7)          105.18  0.001588   -0.18    105.00   
    13. A(C   1,C   0,N   4)          112.40 -0.002075    0.84    113.25   
    14. A(H   6,C   0,H   7)          107.47  0.001419   -0.62    106.85   
    15. A(C   1,C   0,H   6)          108.01  0.003374   -1.00    107.00   
    16. A(N   4,C   0,H   6)          109.23 -0.001813    0.25    109.48   
    17. A(C   0,C   1,O   9)          124.56  0.000057   -0.09    124.46   
    18. A(C   0,C   1,O   5)          112.84  0.007392   -0.77    112.07   
    19. A(O   5,C   1,O   9)          122.55 -0.007390    0.79    123.34   
    20. A(C   0,N   4,H   3)          110.44  0.002266   -0.35    110.09   
    21. A(C   0,N   4,H   2)          110.41  0.000170   -0.26    110.15   
    22. A(H   2,N   4,H   3)          108.56  0.000084   -0.52    108.04   
    23. A(C   1,O   5,H   8)          110.08  0.010419   -1.58    108.50   
    24. D(O   5,C   1,C   0,N   4)     31.75 -0.000533    1.28     33.03   
    25. D(O   9,C   1,C   0,N   4)   -151.04  0.000629   -0.23   -151.27   
    26. D(O   9,C   1,C   0,H   6)    -30.47 -0.000658   -0.08    -30.54   
    27. D(O   5,C   1,C   0,H   6)    152.32 -0.001819    1.43    153.76   
    28. D(O   5,C   1,C   0,H   7)    -93.14  0.002073    0.20    -92.94   
    29. D(H   2,N   4,C   0,H   6)     68.02 -0.001495   -0.05     67.97   
    30. D(H   2,N   4,C   0,C   1)   -172.12  0.000192   -0.61   -172.73   
    31. D(H   3,N   4,C   0,H   6)   -171.90  0.000183   -1.10   -173.01   
    32. D(H   3,N   4,C   0,C   1)    -52.04  0.001871   -1.66    -53.70   
    33. D(H   2,N   4,C   0,H   7)    -52.36 -0.000701    0.19    -52.17   
    34. D(H   8,O   5,C   1,O   9)      2.44 -0.000275    0.19      2.62   
    35. D(H   8,O   5,C   1,C   0)    179.71  0.001086   -1.32    178.40   
    ----------------------------------------------------------------------------

Geometry step timings:
Preparation and reading OPT file:      0.000 s ( 2.637 %)
Internal coordinates            :      0.000 s ( 2.418 %)
B/P matrices and projection     :      0.000 s (32.967 %)
Hessian update/contruction      :      0.000 s (12.088 %)
Making the step                 :      0.000 s (23.077 %)
Converting the step to Cartesian:      0.000 s ( 4.176 %)
Storing new data                :      0.000 s ( 2.637 %)
Checking convergence            :      0.000 s ( 2.418 %)
Final printing                  :      0.000 s (17.582 %)
Total time                      :      0.000 s

Time for energy+gradient        :      3.330 s
Time for complete geometry iter :      3.342 s

         *************************************************************
         *                GEOMETRY OPTIMIZATION CYCLE   2            *
         *************************************************************
---------------------------------
CARTESIAN COORDINATES (ANGSTROEM)
---------------------------------
  C     -4.930844   -1.268626   -0.153118
  C     -4.375425   -2.450515    0.633488
  H     -5.923369    0.501337    0.132521
  H     -6.142589   -0.585474    1.350671
  N     -5.459054   -0.204750    0.699811
  O     -5.055514   -2.659253    1.786517
  H     -4.107791   -0.873948   -0.763494
  H     -5.670980   -1.713468   -0.857653
  H     -4.676342   -3.436850    2.232207
  O     -3.482379   -3.178138    0.243279

----------------------------
CARTESIAN COORDINATES (A.U.)
----------------------------
  NO LB      ZA    FRAG     MASS         X           Y           Z
   0 C     6.0000    0    12.011   -9.317946   -2.397355   -0.289351
   1 C     6.0000    0    12.011   -8.268354   -4.630802    1.197118
   2 H     1.0000    0     1.008  -11.193546    0.947389    0.250427
   3 H     1.0000    0     1.008  -11.607811   -1.106386    2.552398
   4 N     7.0000    0    14.007  -10.316117   -0.386921    1.322450
   5 O     8.0000    0    15.999   -9.553537   -5.025260    3.376027
   6 H     1.0000    0     1.008   -7.762601   -1.651523   -1.442795
   7 H     1.0000    0     1.008  -10.716598   -3.237985   -1.620730
   8 H     1.0000    0     1.008   -8.837007   -6.494706    4.218261
   9 O     8.0000    0    15.999   -6.580743   -6.005811    0.459731

--------------------------------
INTERNAL COORDINATES (ANGSTROEM)
--------------------------------
 C      0   0   0     0.000000000000     0.00000000     0.00000000
 C      1   0   0     1.524500032243     0.00000000     0.00000000
 H      1   2   0     2.049258941091   140.72699161     0.00000000
 H      3   1   2     1.647150807504    66.27528401   336.92682130
 N      4   3   1     1.017737935162    35.98512676    39.19474098
 O      2   1   3     1.354831896579   112.06646879    27.68060163
 H      1   2   3     1.098064661924   107.00071085   126.06976956
 H      1   2   3     1.114475120847   104.99248926   239.37667611
 H      6   2   1     0.973174721555   108.49888938   178.39117210
 O      2   1   3     1.216235472638   124.45662502   203.38594361

---------------------------
INTERNAL COORDINATES (A.U.)
---------------------------
 C      0   0   0     0.000000000000     0.00000000     0.00000000
 C      1   0   0     2.880887552094     0.00000000     0.00000000
 H      1   2   0     3.872538176151   140.72699161     0.00000000
 H      3   1   2     3.112663927450    66.27528401   336.92682130
 N      4   3   1     1.923245973559    35.98512676    39.19474098
 O      2   1   3     2.560261242036   112.06646879    27.68060163
 H      1   2   3     2.075041488373   107.00071085   126.06976956
 H      1   2   3     2.106052761470   104.99248926   239.37667611
 H      6   2   1     1.839033704193   108.49888938   178.39117210
 O      2   1   3     2.298351957645   124.45662502   203.38594361

------------------------------------------------------------------------------
                   ___                                                        
                  /   \      - P O W E R E D   B Y -                         
                 /     \                                                     
                 |  |  |   _    _      __       _____    __    __             
                 |  |  |  | |  | |    /  \     |  _  \  |  |  /  |          
                  \  \/   | |  | |   /    \    | | | |  |  | /  /          
                 / \  \   | |__| |  /  /\  \   | |_| |  |  |/  /          
                |  |  |   |  __  | /  /__\  \  |    /   |      \           
                |  |  |   | |  | | |   __   |  |    \   |  |\   \          
                \     /   | |  | | |  |  |  |  | |\  \  |  | \   \       
                 \___/    |_|  |_| |__|  |__|  |_| \__\ |__|  \__/        
                                                                              
                      - O R C A' S   B I G   F R I E N D -                    
                                      &                                       
                       - I N T E G R A L  F E E D E R -                       
                                                                              
 v1 FN, 2020, v2 2021, v3 2022-2024                                           
------------------------------------------------------------------------------


----------------------
SHARK INTEGRAL PACKAGE
----------------------

Number of atoms                             ...     10
Number of basis functions                   ...     95
Number of shells                            ...     45
Maximum angular momentum                    ...      2
Integral batch strategy                     ... SHARK/LIBINT Hybrid
RI-J (if used) integral strategy            ... SPLIT-RIJ (Revised 2003 algorithm where possible)
Printlevel                                  ...      1
Contraction scheme used                     ... SEGMENTED contraction
Prescreening option                         ... SCHWARTZ
   Thresh                                   ... 2.500e-11
   Tcut                                     ... 2.500e-12
   Tpresel                                  ... 2.500e-12 
Coulomb Range Separation                    ... NOT USED
Exchange Range Separation                   ... NOT USED
Multipole approximations                    ... NOT USED
Finite Nucleus Model                        ... NOT USED
CABS basis                                  ... NOT available
Auxiliary Coulomb fitting basis             ... AVAILABLE
   # of basis functions in Aux-J            ...    300
   # of shells in Aux-J                     ...    100
   Maximum angular momentum in Aux-J        ...      4
Auxiliary J/K fitting basis                 ... NOT available
Auxiliary Correlation fitting basis         ... NOT available
Auxiliary 'external' fitting basis          ... NOT available

Checking pre-screening integrals            ... done (  0.0 sec) Dimension = 45
   => SHARK Basis and OBASIS are compatible. Storing Pre-screening
Shell pair information
Shell pair cut-off parameter TPreSel        ...   2.5e-12
Total number of shell pairs                 ...      1035
Shell pairs after pre-screening             ...      1004
Total number of primitive shell pairs       ...      5170
Primitive shell pairs kept                  ...      3720
          la=0 lb=0:    312 shell pairs
          la=1 lb=0:    363 shell pairs
          la=1 lb=1:    117 shell pairs
          la=2 lb=0:    123 shell pairs
          la=2 lb=1:     74 shell pairs
          la=2 lb=2:     15 shell pairs

Checking whether 4 symmetric matrices of dimension 95 fit in memory
:Max Core in MB      =   4096.00
 MB in use           =      4.77
 MB left             =   4091.23
 MB needed           =      0.14
 Data fit in memory  = YES
Calculating RI/J V-Matrix + Cholesky decomp.... done (  0.0 sec)
Calculating Nuclear repulsion               ... done (  0.0 sec) ENN=    178.836036205953 Eh

Diagonalization of the overlap matrix:
Smallest eigenvalue                        ... 4.752e-03
Time for diagonalization                   ...    0.001 sec
Threshold for overlap eigenvalues          ... 1.000e-07
Number of eigenvalues below threshold      ... 0
Time for construction of square roots      ...    0.000 sec
Total time needed                          ...    0.001 sec

-------------------
DFT GRID GENERATION
-------------------

General Integration Accuracy     IntAcc      ... 4.388
Radial Grid Type                 RadialGrid  ... OptM3 with GC (2021)
Angular Grid (max. ang.)         AngularGrid ... 4 (Lebedev-302)
Angular grid pruning method      GridPruning ... 4 (adaptive)
Weight generation scheme         WeightScheme... mBecke (2022)
Basis function cutoff            BFCut       ... 1.0000e-11
Integration weight cutoff        WCut        ... 1.0000e-14
Partially contracted basis set               ... off
Rotationally invariant grid construction     ... off
Angular grids for H and He will be reduced by one unit

Total number of grid points                  ...    46685
Total number of batches                      ...      735
Average number of points per batch           ...       63
Average number of grid points per atom       ...     4668
Grids setup in   0.1 sec
Initializing property integral containers    ... done (  0.0 sec)

SHARK setup successfully completed in   0.2 seconds

Maximum memory used throughout the entire STARTUP-calculation: 20.0 MB
Occupation numbers will be reassigned to an Aufbau configuration
             **** ENERGY FILE WAS UPDATED (4.en.tmp) ****
Finished Guess after   0.0 sec
Maximum memory used throughout the entire GUESS-calculation: 7.8 MB
----------------------------------------D-I-I-S--------------------------------------------
Iteration    Energy (Eh)           Delta-E    RMSDP     MaxDP     DIISErr   Damp  Time(sec)
-------------------------------------------------------------------------------------------
               ***  Starting incremental Fock matrix formation  ***
    1    -284.2411226345264481     0.00e+00  2.01e-04  2.63e-03  6.41e-03  0.700   0.2
    2    -284.2413179766120379    -1.95e-04  1.86e-04  2.49e-03  4.42e-03  0.700   0.1
                               ***Turning on AO-DIIS***
                              *** Initializing SOSCF ***
---------------------------------------S-O-S-C-F--------------------------------------
Iteration    Energy (Eh)           Delta-E    RMSDP     MaxDP     MaxGrad    Time(sec)
--------------------------------------------------------------------------------------
    3    -284.2414569835438556    -1.39e-04  4.78e-04  6.46e-03  3.01e-03     0.1
               *** Restarting incremental Fock matrix formation ***
    4    -284.2417720303061515    -3.15e-04  1.50e-04  2.11e-03  6.76e-04     0.1
    5    -284.2417464124814614     2.56e-05  1.12e-04  1.97e-03  2.34e-03     0.1
    6    -284.2417770110521360    -3.06e-05  5.47e-05  7.35e-04  2.64e-04     0.1
    7    -284.2417759656825638     1.05e-06  3.25e-05  4.54e-04  3.15e-04     0.1
    8    -284.2417779660613633    -2.00e-06  4.94e-06  7.11e-05  1.56e-05     0.1
    9    -284.2417779562085798     9.85e-09  2.93e-06  4.58e-05  2.41e-05     0.1
                 **** Energy Check signals convergence ****

               *****************************************************
               *                     SUCCESS                       *
               *           SCF CONVERGED AFTER   9 CYCLES          *
               *****************************************************

             **** ENERGY FILE WAS UPDATED (4.en.tmp) ****

----------------
TOTAL SCF ENERGY
----------------

Total Energy       :       -284.24177797252975 Eh           -7734.61200 eV

Components:
Nuclear Repulsion  :        178.83603620595329 Eh            4866.37595 eV
Electronic Energy  :       -463.07781417848304 Eh          -12600.98795 eV
One Electron Energy:       -742.26676792907267 Eh          -20198.10561 eV
Two Electron Energy:        279.18895375058963 Eh            7597.11766 eV

Virial components:
Potential Energy   :       -566.85381734484099 Eh          -15424.87656 eV
Kinetic Energy     :        282.61203937231119 Eh            7690.26456 eV
Virial Ratio       :          2.00576669912520

DFT components:
N(Alpha)           :       19.999986122335 electrons
N(Beta)            :       19.999986122335 electrons
N(Total)           :       39.999972244669 electrons
E(X)               :      -34.889841758990 Eh       
E(C)               :       -1.782473362699 Eh       
E(XC)              :      -36.672315121689 Eh       

---------------
SCF CONVERGENCE
---------------

  Last Energy change         ...   -9.8528e-09  Tolerance :   1.0000e-08
  Last MAX-Density change    ...    4.5777e-05  Tolerance :   1.0000e-07
  Last RMS-Density change    ...    2.9318e-06  Tolerance :   5.0000e-09
  Last DIIS Error            ...    3.0116e-03  Tolerance :   5.0000e-07
  Last Orbital Gradient      ...    2.4115e-05  Tolerance :   1.0000e-05
  Last Orbital Rotation      ...    1.3236e-05  Tolerance :   1.0000e-05


Total SCF time: 0 days 0 hours 0 min 1 sec 
Finished LeanSCF after   1.4 sec

Maximum memory used throughout the entire LEANSCF-calculation: 10.3 MB



-------------------------------------------------------------------------------
                          DFT DISPERSION CORRECTION                            
-------------------------------------------------------------------------------
-------------------------   ----------------
Dispersion correction           -0.006931518
-------------------------   ----------------


-------------------------   --------------------
FINAL SINGLE POINT ENERGY      -284.248709490391
-------------------------   --------------------

------------------------------------------------------------------------------
                         ORCA SCF GRADIENT CALCULATION
------------------------------------------------------------------------------

Nuc. rep. gradient        (SHARK) ... done (  0.0 sec)
HCore & Overlap gradient  (SHARK) ... done (  0.0 sec)
Split-RIJ-J gradient      (SHARK) ... done (  0.2 sec)
XC gradient                       ... done (  0.7 sec)
Dispersion correction             ... done (  0.0 sec)

-------------------
DISPERSION GRADIENT
-------------------

   1   C   :   -0.000120025   -0.000012638    0.000451544
   2   C   :   -0.000148860    0.000460320   -0.000478538
   3   H   :   -0.000306702    0.000299742    0.000428988
   4   H   :   -0.000045344    0.000300758    0.000040968
   5   N   :    0.000400231   -0.001211754   -0.000581560
   6   O   :    0.000036892    0.000590032   -0.000306222
   7   H   :   -0.000565250   -0.000309816    0.000112153
   8   H   :    0.000646155    0.000323652   -0.000077767
   9   H   :    0.000302429   -0.000136857   -0.000271032
  10   O   :   -0.000199527   -0.000303438    0.000681465

Difference to translation invariance:
           :    0.0000000000    0.0000000000   -0.0000000000

Difference to rotation invariance:
           :    0.0000000000   -0.0000000000    0.0000000000

Norm of the Dispersion gradient    ...    0.0022999949
RMS gradient                       ...    0.0004199197
MAX gradient                       ...    0.0012117544

------------------
CARTESIAN GRADIENT
------------------

   1   C   :    0.003227268   -0.001839314   -0.000317450
   2   C   :   -0.003463829    0.002177126    0.005794653
   3   H   :    0.000777966    0.000732141    0.000783573
   4   H   :    0.001624683   -0.000054837    0.001179717
   5   N   :   -0.002798907   -0.002638063   -0.003269767
   6   O   :    0.007409195   -0.002599382   -0.008129173
   7   H   :   -0.000535036    0.001120392    0.000552970
   8   H   :   -0.000813722    0.000713909    0.000452350
   9   H   :   -0.002667868    0.001353709    0.002338817
  10   O   :   -0.002759750    0.001034319    0.000614310

Difference to translation invariance:
           :    0.0000000000    0.0000000000   -0.0000000000

Difference to rotation invariance:
           :   -0.0001065071    0.0000181286   -0.0000033676

Norm of the Cartesian gradient     ...    0.0158092695
RMS gradient                       ...    0.0028863645
MAX gradient                       ...    0.0081291729

-------
TIMINGS
-------

Total SCF gradient time     ....        0.835 sec

Densities                   ....       0.000 sec  (  0.0%)
One electron gradient       ....       0.025 sec  (  3.0%)
RI-J Coulomb gradient       ....       0.150 sec  ( 18.0%)
XC gradient                 ....       0.659 sec  ( 79.0%)

Maximum memory used throughout the entire SCFGRAD-calculation: 13.4 MB
------------------------------------------------------------------------------
                         ORCA GEOMETRY RELAXATION STEP
------------------------------------------------------------------------------

Reading the OPT-File                    .... done
Getting information on internals        .... done
Copying old internal coords+grads       .... done
Making the new internal coordinates     .... (2022 redundants) done
Validating the new internal coordinates .... (2022 redundants) done
Calculating the B-matrix                .... done
Calculating the G,G- and P matrices     .... done
Transforming gradient to internals      .... done
Projecting the internal gradient        .... done
Number of atoms                         ....  10
Number of internal coordinates          ....  35
Current Energy                          ....  -284.248709490 Eh
Current gradient norm                   ....     0.015809270 Eh/bohr
Maximum allowed component of the step   ....  0.300
Current trust radius                    ....  0.300
Updating the Hessian (BFGS)             .... done
Forming the augmented Hessian           .... done
Diagonalizing the augmented Hessian     .... done
Last element of RFO vector              ....  0.992881457
Lowest eigenvalues of augmented Hessian:
 -0.000663889  0.011578588  0.015358365  0.019968508  0.036235818
Length of the computed step             ....  0.119960674
The final length of the internal step   ....  0.119960674
Converting the step to Cartesian space:
 Initial RMS(Int)=    0.0202770547
Transforming coordinates:
 Iter   0:  RMS(Cart)=    0.0197096468 RMS(Int)=    0.0202640822
done
Storing new coordinates                 .... done
The predicted energy change is          ....    -0.000336721
Previously predicted energy change      ....    -0.001652345
Actually observed energy change         ....    -0.002001665
Ratio of predicted to observed change   ....     1.211408819
New trust radius                        ....     0.450000000

                                .--------------------.
          ----------------------|Geometry convergence|-------------------------
          Item                value                   Tolerance       Converged
          ---------------------------------------------------------------------
          Energy change      -0.0020016654            0.0000050000      NO
          RMS gradient        0.0019119868            0.0001000000      NO
          MAX gradient        0.0070722758            0.0003000000      NO
          RMS step            0.0202770547            0.0020000000      NO
          MAX step            0.0571241316            0.0040000000      NO
          -------------------------------------------------------------------------
          ........................................................
          Max(Bonds)      0.0302      Max(Angles)    1.54
          Max(Dihed)        2.57      Max(Improp)    0.00
          ---------------------------------------------------------------------

The optimization has not yet converged - more geometry cycles are needed


    ---------------------------------------------------------------------------
                         Redundant Internal Coordinates
                            (Angstroem and degrees)

        Definition                    Value    dE/dq     Step     New-Value
    ----------------------------------------------------------------------------
     1. B(C   1,C   0)                1.5245 -0.001027  0.0036    1.5281   
     2. B(N   4,H   3)                1.0177 -0.000418  0.0011    1.0188   
     3. B(N   4,C   0)                1.4623 -0.001511  0.0044    1.4667   
     4. B(N   4,H   2)                1.0178 -0.000285  0.0010    1.0188   
     5. B(O   5,C   1)                1.3548 -0.007072  0.0095    1.3643   
     6. B(O   5,H   3)                2.3816 -0.000768  0.0302    2.4119   
     7. B(H   6,C   0)                1.0981 -0.000305  0.0012    1.0992   
     8. B(H   7,C   0)                1.1145 -0.000033  0.0010    1.1154   
     9. B(H   8,O   5)                0.9732 -0.001049  0.0018    0.9750   
[...]

Components:
Nuclear Repulsion  :        178.24837240757799 Eh            4850.38480 eV
Electronic Energy  :       -462.49063284716783 Eh          -12585.00993 eV
One Electron Energy:       -741.09274199015158 Eh          -20166.15874 eV
Two Electron Energy:        278.60210914298375 Eh            7581.14881 eV

Virial components:
Potential Energy   :       -566.82110740854398 Eh          -15423.98647 eV
Kinetic Energy     :        282.57884696895417 Eh            7689.36135 eV
Virial Ratio       :          2.00588654631611

DFT components:
N(Alpha)           :       19.999983101117 electrons
N(Beta)            :       19.999983101117 electrons
N(Total)           :       39.999966202234 electrons
E(X)               :      -34.877684688349 Eh       
E(C)               :       -1.782087318383 Eh       
E(XC)              :      -36.659772006732 Eh       

---------------
SCF CONVERGENCE
---------------

  Last Energy change         ...   -1.0108e-09  Tolerance :   1.0000e-08
  Last MAX-Density change    ...    1.4670e-05  Tolerance :   1.0000e-07
  Last RMS-Density change    ...    9.4243e-07  Tolerance :   5.0000e-09
  Last DIIS Error            ...    3.5571e-05  Tolerance :   5.0000e-07
  Last Orbital Gradient      ...    1.3246e-05  Tolerance :   1.0000e-05
  Last Orbital Rotation      ...    1.8719e-05  Tolerance :   1.0000e-05


----------------
ORBITAL ENERGIES
----------------

  NO   OCC          E(Eh)            E(eV) 
   0   2.0000     -18.816177      -512.0142 
   1   2.0000     -18.757569      -510.4194 
   2   2.0000     -13.996371      -380.8606 
   3   2.0000     -10.038090      -273.1503 
   4   2.0000      -9.951746      -270.8008 
   5   2.0000      -1.012118       -27.5411 
   6   2.0000      -0.927139       -25.2287 
   7   2.0000      -0.811603       -22.0848 
   8   2.0000      -0.648372       -17.6431 
   9   2.0000      -0.550231       -14.9725 
  10   2.0000      -0.445965       -12.1353 
  11   2.0000      -0.427711       -11.6386 
  12   2.0000      -0.423517       -11.5245 
  13   2.0000      -0.402716       -10.9585 
  14   2.0000      -0.365895        -9.9565 
  15   2.0000      -0.342552        -9.3213 
  16   2.0000      -0.337347        -9.1797 
  17   2.0000      -0.273416        -7.4400 
  18   2.0000      -0.228789        -6.2257 
  19   2.0000      -0.197283        -5.3684 
  20   0.0000      -0.024635        -0.6704 
  21   0.0000       0.045764         1.2453 
  22   0.0000       0.078334         2.1316 
  23   0.0000       0.110823         3.0156 
  24   0.0000       0.121642         3.3100 
  25   0.0000       0.147357         4.0098 
  26   0.0000       0.177026         4.8171 
  27   0.0000       0.199998         5.4422 
  28   0.0000       0.261744         7.1224 
  29   0.0000       0.319590         8.6965 
  30   0.0000       0.507959        13.8223 
*Only the first 10 virtual orbitals were printed.

                    ********************************
                    * MULLIKEN POPULATION ANALYSIS *
                    ********************************

-----------------------
MULLIKEN ATOMIC CHARGES
-----------------------
   0 C :   -0.151427
   1 C :    0.524380
   2 H :    0.243019
   3 H :    0.251945
   4 N :   -0.575584
   5 O :   -0.464399
   6 H :    0.148667
   7 H :    0.116379
   8 H :    0.322357
   9 O :   -0.415336
Sum of atomic charges:   -0.0000000

--------------------------------
MULLIKEN REDUCED ORBITAL CHARGES
--------------------------------
  0 C s       :     3.217182  s :     3.217182
      pz      :     0.968349  p :     2.885569
      px      :     1.035428
      py      :     0.881792
      dz2     :     0.004137  d :     0.048676
      dxz     :     0.011914
      dyz     :     0.014211
      dx2y2   :     0.007627
      dxy     :     0.010786

  1 C s       :     2.991312  s :     2.991312
      pz      :     0.744563  p :     2.365383
      px      :     0.769742
      py      :     0.851079
      dz2     :     0.024712  d :     0.118924
      dxz     :     0.031904
      dyz     :     0.018073
      dx2y2   :     0.022937
      dxy     :     0.021299

  2 H s       :     0.733321  s :     0.733321
      pz      :     0.007266  p :     0.023660
      px      :     0.007101
      py      :     0.009293

  3 H s       :     0.724339  s :     0.724339
      pz      :     0.008848  p :     0.023716
      px      :     0.009213
      py      :     0.005655

  4 N s       :     3.635609  s :     3.635609
      pz      :     1.286010  p :     3.911356
      px      :     1.455904
      py      :     1.169442
      dz2     :     0.002209  d :     0.028619
      dxz     :     0.007174
      dyz     :     0.008630
      dx2y2   :     0.004566
      dxy     :     0.006040

  5 O s       :     3.837777  s :     3.837777
      pz      :     1.420714  p :     4.603695
      px      :     1.655827
      py      :     1.527154
      dz2     :     0.004563  d :     0.022927
      dxz     :     0.006419
      dyz     :     0.003604
      dx2y2   :     0.003462
      dxy     :     0.004879

  6 H s       :     0.840617  s :     0.840617
      pz      :     0.003653  p :     0.010716
      px      :     0.004851
      py      :     0.002212

  7 H s       :     0.872516  s :     0.872516
      pz      :     0.004000  p :     0.011106
      px      :     0.004185
      py      :     0.002921

  8 H s       :     0.640094  s :     0.640094
      pz      :     0.010056  p :     0.037550
      px      :     0.010805
      py      :     0.016688

  9 O s       :     3.869736  s :     3.869736
      pz      :     1.635045  p :     4.518018
      px      :     1.373021
      py      :     1.509953
      dz2     :     0.003386  d :     0.027582
      dxz     :     0.005277
      dyz     :     0.003677
      dx2y2   :     0.008581
      dxy     :     0.006661



                     *******************************
                     * LOEWDIN POPULATION ANALYSIS *
                     *******************************

----------------------
LOEWDIN ATOMIC CHARGES
----------------------
   0 C :   -0.090825
   1 C :    0.141639
   2 H :    0.128167
   3 H :    0.129421
   4 N :   -0.272857
   5 O :   -0.160225
   6 H :    0.090546
   7 H :    0.069607
   8 H :    0.185045
   9 O :   -0.220517

-------------------------------
LOEWDIN REDUCED ORBITAL CHARGES
-------------------------------
  0 C s       :     2.908248  s :     2.908248
      pz      :     1.030293  p :     3.075512
      px      :     1.066919
      py      :     0.978300
      dz2     :     0.007706  d :     0.107065
      dxz     :     0.025425
      dyz     :     0.033890
      dx2y2   :     0.016070
      dxy     :     0.023975

  1 C s       :     2.863187  s :     2.863187
      pz      :     0.868437  p :     2.715888
      px      :     0.912360
      py      :     0.935090
      dz2     :     0.057980  d :     0.279286
      dxz     :     0.080412
      dyz     :     0.039667
      dx2y2   :     0.050288
      dxy     :     0.050938

  2 H s       :     0.794627  s :     0.794627
      pz      :     0.024582  p :     0.077205
      px      :     0.022407
      py      :     0.030215

  3 H s       :     0.792553  s :     0.792553
      pz      :     0.027612  p :     0.078025
      px      :     0.033915
      py      :     0.016498

  4 N s       :     3.223155  s :     3.223155
      pz      :     1.320616  p :     3.993178
      px      :     1.458294
      py      :     1.214268
      dz2     :     0.004165  d :     0.056525
      dxz     :     0.013118
      dyz     :     0.019190
      dx2y2   :     0.008797
      dxy     :     0.011255

  5 O s       :     3.496559  s :     3.496559
      pz      :     1.442043  p :     4.615756
      px      :     1.655076
      py      :     1.518636
      dz2     :     0.010563  d :     0.047911
      dxz     :     0.014558
      dyz     :     0.009588
      dx2y2   :     0.005407
      dxy     :     0.007795

  6 H s       :     0.870791  s :     0.870791
      pz      :     0.013048  p :     0.038663
      px      :     0.017917
      py      :     0.007698

  7 H s       :     0.891694  s :     0.891694
      pz      :     0.014150  p :     0.038700
      px      :     0.014750
      py      :     0.009800

  8 H s       :     0.700792  s :     0.700792
      pz      :     0.028837  p :     0.114164
      px      :     0.032550
      py      :     0.052776

  9 O s       :     3.567380  s :     3.567380
      pz      :     1.626346  p :     4.597125
      px      :     1.434078
      py      :     1.536702
      dz2     :     0.007361  d :     0.056012
      dxz     :     0.010882
      dyz     :     0.006496
      dx2y2   :     0.013363
      dxy     :     0.017910



                      *****************************
                      * MAYER POPULATION ANALYSIS *
                      *****************************

  NA   - Mulliken gross atomic population
  ZA   - Total nuclear charge
  QA   - Mulliken gross atomic charge
  VA   - Mayer's total valence
  BVA  - Mayer's bonded valence
  FA   - Mayer's free valence

  ATOM       NA         ZA         QA         VA         BVA        FA
  0 C      6.1514     6.0000    -0.1514     3.8430     3.8430    -0.0000
  1 C      5.4756     6.0000     0.5244     3.9601     3.9601     0.0000
  2 H      0.7570     1.0000     0.2430     0.9163     0.9163    -0.0000
  3 H      0.7481     1.0000     0.2519     0.9194     0.9194    -0.0000
  4 N      7.5756     7.0000    -0.5756     2.8370     2.8370    -0.0000
  5 O      8.4644     8.0000    -0.4644     2.0427     2.0427     0.0000
  6 H      0.8513     1.0000     0.1487     0.9472     0.9472    -0.0000
  7 H      0.8836     1.0000     0.1164     0.9407     0.9407     0.0000
  8 H      0.6776     1.0000     0.3224     0.9155     0.9155    -0.0000
  9 O      8.4153     8.0000    -0.4153     2.1097     2.1097     0.0000

  Mayer bond orders larger than 0.100000
B(  0-C ,  1-C ) :   0.9449 B(  0-C ,  4-N ) :   1.0083 B(  0-C ,  6-H ) :   0.9410 
B(  0-C ,  7-H ) :   0.9137 B(  1-C ,  5-O ) :   1.0816 B(  1-C ,  9-O ) :   1.9209 
B(  2-H ,  4-N ) :   0.9064 B(  3-H ,  4-N ) :   0.8990 B(  5-O ,  8-H ) :   0.8515 


-------
TIMINGS
-------

Total SCF time: 0 days 0 hours 0 min 0 sec 

Total time                  ....       0.616 sec
Sum of individual times     ....       0.466 sec  ( 75.6%)

SCF preparation             ....       0.027 sec  (  4.4%)
Fock matrix formation       ....       0.425 sec  ( 69.0%)
  Startup                   ....       0.000 sec  (  0.0% of F)
  Split-RI-J                ....       0.113 sec  ( 26.6% of F)
  XC integration            ....       0.432 sec  (101.7% of F)
    XC Preparation          ....       0.000 sec  (  0.0% of XC)
    Basis function eval.    ....       0.145 sec  ( 33.5% of XC)
    Density eval.           ....       0.077 sec  ( 17.9% of XC)
    XC-Functional eval.     ....       0.114 sec  ( 26.3% of XC)
    XC-Potential eval.      ....       0.080 sec  ( 18.4% of XC)
Diagonalization             ....       0.000 sec  (  0.0%)
Density matrix formation    ....       0.000 sec  (  0.0%)
Total Energy calculation    ....       0.000 sec  (  0.0%)
Population analysis         ....       0.010 sec  (  1.6%)
Orbital Transformation      ....       0.001 sec  (  0.1%)
Orbital Orthonormalization  ....       0.000 sec  (  0.0%)
DIIS solution               ....       0.001 sec  (  0.1%)
SOSCF solution              ....       0.002 sec  (  0.3%)
Finished LeanSCF after   0.6 sec

Maximum memory used throughout the entire LEANSCF-calculation: 10.8 MB



-------------------------------------------------------------------------------
                          DFT DISPERSION CORRECTION                            
-------------------------------------------------------------------------------
Active option DFTDOPT                   ...         2   
Final C6-coefficient scaling factor     ...     1.250
Final VDW-radii scaling factor          ...     1.100
Damping factor alpha                    ...    20.000
-------------------------   ----------------
Dispersion correction           -0.006968307
-------------------------   ----------------


-------------------------   --------------------
FINAL SINGLE POINT ENERGY      -284.249228746858
-------------------------   --------------------

                                *** OPTIMIZATION RUN DONE ***


------------------------------------------------------------------------------
                              ORCA PROPERTY CALCULATIONS
------------------------------------------------------------------------------

GBWName                                 ... 4.gbw
Number of atoms                         ...     10
Number of basis functions               ...     95
Max core memory                         ...   4096 MB

Electric properties:
Dipole moment                           ... YES
Quadrupole moment                       ...  NO
Static polarizability (Dipole/Dipole)   ...  NO
Static polarizability (Dipole/Quad.)    ...  NO
Static polarizability (Quad./Quad.)     ...  NO
Static polarizability (Velocity)        ...  NO
Static hyperpolarizability              ...  NO

Atomic electric properties:
Dipole moment                           ...  NO
Quadrupole moment                       ...  NO
Static polarizability                   ...  NO

Choice of electric origin               ... Center of mass
Position of electric origin             ...    -8.836067    -3.697617     1.285509

General magnetic properties:
Magnetizability                         ...  NO

EPR properties:
g-Tensor (aka g-matrix)                 ...  NO
Zero-Field splitting spin-orbit         ...  NO
Zero-field splitting spin-spin          ...  NO
Hyperfine couplings                     ...  NO (   0 nuclei)
Quadrupole couplings                    ...  NO (   0 nuclei)
Contact density                         ...  NO (   0 nuclei)

NMR properties:
Chemical shifts                         ...  NO (   0 nuclei)
Spin-rotation constants                 ...  NO (   0 nuclei)
Spin-spin couplings                     ...  NO (   0 nuclei,    0 pairs)

Choice of magnetic origin               ... GIAO
Position of magnetic origin             ...     0.000000     0.000000     0.000000

Properties with geometric perturbations:
SCF Hessian                             ...  NO
IR spectrum                             ...  NO
VCD spectrum                            ...  NO
X-ray spectroscopy properties:
SCF XES/XAS/RIXS spectra                ...  NO

SCF SOC stabilization energy            ...  NO
Diagonal Born-Oppenheimer correction    ...  NO

-------------
DIPOLE MOMENT
-------------

Method             : SCF
Type of density    : Electron Density
Multiplicity       :   1
Irrep              :   0
Energy             :  -284.2422604395898134 Eh
Basis              : AO
                                X                 Y                 Z
Electronic contribution:      2.042607143      -3.290479623       1.279212164
Nuclear contribution   :     -2.973854770       3.416549374      -1.278818197
                        -----------------------------------------
Total Dipole Moment    :     -0.931247628       0.126069750       0.000393968
                        -----------------------------------------
Magnitude (a.u.)       :      0.939742455
Magnitude (Debye)      :      2.388635492



--------------------
Rotational spectrum 
--------------------
 
Rotational constants in cm-1:             0.320667             0.132392             0.099004 
Rotational constants in MHz :          9613.348858          3969.002919          2968.075769 

Dipole components along the rotational axes: 
x,y,z [a.u.] :    -0.566803    -0.422444    -0.619186 
x,y,z [Debye]:    -1.440699    -1.073766    -1.573846 

 

Dipole moment calculation done in   0.0 sec 

Maximum memory used throughout the entire PROP-calculation: 6.3 MB

--------------------------------
SUGGESTED CITATIONS FOR THIS RUN
--------------------------------

Below you find a list of papers that are relevant to this ORCA run
We neither can nor want to force you to cite these papers, but we appreciate if you do
You receive ORCA, which is the product of decades of hard work by many enthusiastic individuals, for free
The only thing we kindly ask in return is that you cite our papers,
We deeply appreciate it, if you show your appreciation for ORCA by not just citing the generic ORCA reference.

Please note that relegating all ORCA citations to the supporting information does *not* help us.
SI sections are not indexed - citations you put there will not count into any citation statistics
But we need these citations in order to attract the funding resources that allow us to do what we are doing

Therefore, if you are a happy ORCA user, please consider citing a few of the papers listed below in the main body of your paper

In addition to the list printed below, the program has created the file 4.bibtex that contains the list in bibtex format
You can import this file easily into all common literature databanks and citation aid programs


List of essential papers. We consider these as the minimum necessary citations

  1. Neese, F.
     Software update: the ORCA program system, version 6.0
     WIRES Comput. Molec. Sci. 2025 15(1), e70019
     doi.org/10.1002/wcms.7019

List of papers to cite with high priority. The work reported in these papers was absolutely
necessary for this run to complete.
Our perspective: the developers of density functionals and basis sets usually get cited in chemistry papers
Good! But without the algorithms to do something with them, the functionals or basis sets would not do anything.
Hence, in our opinion, the algorithm design and method developments papers are equally worthy of getting cited

  1. Neese, F.
     An improvement of the resolution of the identity approximation for the formation of the Coulomb matrix
     J. Comp. Chem. 2003 24(14), 1740-1747
     doi.org/10.1002/jcc.10318
  2. Grimme, S.
     Semiempirical GGA-type density functional constructed with a long-range dispersion correction
     J.Comput.Chem. 2006 27(15), 1787-1799
     doi.org/10.1002/jcc.20495
  3. Neese, F.
     The SHARK Integral Generation and Digestion System
     J. Comp. Chem. 2022 44(3), 381
     doi.org/10.1002/jcc.26942

List of suggested additional citations. These are papers that are important in the 'surrounding' of 
of this run, or papers that preceded the highly important papers. If you like your results we are grateful for a citation.

  1. Neese, F.
     The ORCA program system
     WIRES Comput. Molec. Sci. 2012 2(1), 73-78
     doi.org/10.1002/wcms.81
  2. Neese, F.
     Software update: the ORCA program system, version 4.0
     WIRES Comput. Molec. Sci. 2018 8(1), 1-6
     doi.org/10.1002/wcms.1327
  3. Neese, F.; Wennmohs, F.; Becker, U.; Riplinger, C.
     The ORCA quantum chemistry program package
     J. Chem. Phys. 2020 152(22), 224108
     doi.org/10.1063/5.0004608
  4. Neese, F.
     Software update: The ORCA program system—Version 5.0
     WIRES Comput. Molec. Sci. 2022 12(1), e1606
     doi.org/10.1002/wcms.1606

List of optional additional citations

  1. Neese, F.
     Approximate second-order SCF convergence for spin unrestricted wavefunctions
     Chem. Phys. Lett. 2000 325(1-3), 93-98
     doi.org/10.1016/s0009-2614(00)00662-x

Timings for individual modules:

Sum of individual times          ...       36.853 sec (=   0.614 min)
Startup calculation              ...        2.983 sec (=   0.050 min)   8.1 %
SCF iterations                   ...       20.807 sec (=   0.347 min)  56.5 %
Property calculations            ...        0.033 sec (=   0.001 min)   0.1 %
SCF Gradient evaluation          ...       13.017 sec (=   0.217 min)  35.3 %
Geometry relaxation              ...        0.014 sec (=   0.000 min)   0.0 %
                             ****ORCA TERMINATED NORMALLY****
TOTAL RUN TIME: 0 days 0 hours 0 minutes 37 seconds 195 msec
