
                                 *****************
                                 * O   R   C   A *
                                 *****************

                                            #,                                       
                                            ###                                      
                                            ####                                     
                                            #####                                    
                                            ######                                   
                                           ########,                                 
                                     ,,################,,,,,                         
                               ,,#################################,,                 
                          ,,##########################################,,             
                       ,#########################################, ''#####,          
                    ,#############################################,,   '####,        
                  ,##################################################,,,,####,       
                ,###########''''           ''''###############################       
              ,#####''   ,,,,##########,,,,          '''####'''          '####       
            ,##' ,,,,###########################,,,                        '##       
           ' ,,###''''                  '''############,,,                           
         ,,##''                                '''############,,,,        ,,,,,,###''
      ,#''                                            '''#######################'''  
     '                                                          ''''####''''         
             ,#######,   #######,   ,#######,      ##                                
            ,#'     '#,  ##    ##  ,#'     '#,    #''#        ,####,    ,#,          
            ##       ##  ##   ,#'  ##            #'  '#       #'       ,# #          
            ##       ##  #######   ##           ,######,      #####,      #          
            '#,     ,#'  ##    ##  '#,     ,#' ,#      #,     #,   #      #          
             '#######'   ##     ##  '#######'  #'      '#     '####' #    #          



                #########################################################
                #                        -***-                          #
                #          Department of theory and spectroscopy        #
                #                                                       #
                #                      Frank Neese                      #
                #                                                       #
                #     Directorship, Architecture, Infrastructure        #
                #                    SHARK, DRIVERS                     #
                #        Core code/Algorithms in most modules           #
                #                                                       #
                #        Max Planck Institute fuer Kohlenforschung      #
                #                Kaiser Wilhelm Platz 1                 #
                #                 D-45470 Muelheim/Ruhr                 #
                #                      Germany                          #
                #                                                       #
                #                  All rights reserved                  #
                #                        -***-                          #
                #########################################################


                         Program Version 6.1.0  -  RELEASE   -
                                (GIT: $679e74b$)
                          ($2025-06-10 18:02:51 +0200$)


 With contributions from (in alphabetic order):
[Max-Planck-Institut fuer Kohlenforschung]                               
  Daniel Aravena         : Magnetic Suceptibility                        
  Michael Atanasov       : Ab Initio Ligand Field Theory (pilot matlab implementation)
  Alexander A. Auer      : GIAO ZORA, VPT2 properties, NMR spectrum      
  Ute Becker             : All parallelization in ORCA, NUMFREQ, NUMCALC 
  Giovanni Bistoni       : ED, misc. LED, open-shell LED, HFLD           
  Dmytro Bykov           : pre 5.0 version of the SCF Hessian            
  Marcos Casanova-Páez   : Triplet and SCS-CIS(D). UHF-(DLPNO)-IP/EA/STEOM-CCSD. UHF-CVS-IP/STEOM-CCSD   
  Vijay G. Chilkuri      : MRCI spin determinant printing, contributions to CSF-ICE 
  Pauline Colinet        : FMM embedding                                 
  Dipayan Datta          : RHF DLPNO-CCSD density                        
  Achintya Kumar Dutta   : EOM-CC, STEOM-CC                              
  Nicolas Foglia         : Exact transition moments, OPA infrastructure, MCD improvements    
  Dmitry Ganyushin       : Spin-Orbit,Spin-Spin,Magnetic field MRCI      
  Miquel Garcia-Rates    : C-PCM and meta-GGA Hessian, CCSD/C-PCM, Gaussian charge scheme 
  Tiago L. C. Gouveia    : GS-ROHF, GS-ROCIS                             
  Yang Guo               : DLPNO-NEVPT2, F12-NEVPT2, CIM, IAO-localization        
  Andreas Hansen         : Spin unrestricted coupled pair/coupled cluster methods 
  Ingolf Harden          : AUTO-CI MPn and infrastructure                
  Benjamin Helmich-Paris : MC-RPA, TRAH-(SCF,CASSCF), AVAS, COSX integrals, SCF dyn. polar., MC-PDFT, srDFT 
  Lee Huntington         : MR-EOM, pCC                                   
  Robert Izsak           : Overlap fitted RIJCOSX, COSX-SCS-MP3, EOM     
  Riya Kayal             : Wick's Theorem for AUTO-CI, AUTO-CI UHF-CCSDT 
  Emily Kempfer          : AUTO-CI RHF CISDT and CCSDT, approximate NEVPT4
  Christian Kollmar      : KDIIS, OOCD, Brueckner-CCSD(T), CCSD density, CASPT2, CASPT2-K, improved NEVPT2 
  Axel Koslowski         : Symmetry handling                             
  Simone Kossmann        : meta-GGA functionals, TD-DFT gradient, OOMP2, (MP2 Hessian; deprecated post 5.0) 
  Lucas Lang             : DCDCAS, Hyperfine gauge corrections, ICE-SOC+SSC
  Marvin Lechner         : AUTO-CI (C++ implementation), FIC-MRCC        
  Spencer Leger          : CASSCF response                               
  Dagmar Lenk            : GEPOL surface, SMD, ORCA-2-JSON               
  Dimitrios Liakos       : Extrapolation schemes; Compound Job, Property file
  Dimitrios Manganas     : Further ROCIS development; embedding schemes. LFT, Crystal Embedding 
  Dimitrios Pantazis     : SARC Basis sets                               
  Anastasios Papadopoulos: AUTO-CI, single reference methods and gradients 
  Taras Petrenko         : pre 6.0 DFT Hessian and TD-DFT gradient,  ECA, NRVS 
  Petra Pikulova         : Analytic Raman intensities                    
  Peter Pinski           : DLPNO-MP2, DLPNO-MP2 Gradient                 
  Shashank Vittal Rao    : ES-AILFT, MagRelax                            
  Christoph Reimann      : Effective Core Potentials                     
  Marius Retegan         : Local ZFS, SOC                                
  Christoph Riplinger    : Optimizer, TS searches, QM/MM, DLPNO-CCSD(T), (RO)-DLPNO pert. Triples 
  Michael Roemelt        : Original ROCIS implementation, recursive CI coupling coefficients
  Masaaki Saitow         : Open-shell DLPNO-CCSD energy and density      
  Barbara Sandhoefer     : DKH picture change effects                    
  Yorick L. A. Schmerwitz: GMF and freeze-and-release deltaSCF, NEB S-IDPP initial path                    
  Kantharuban Sivalingam : CASSCF convergence/infrastructure, NEVPT2, NEVPT3, NEVPT4(SD), FIC-MRCI and CEPA variants
  Bernardo de Souza      : ESD, SOC TD-DFT                               
  Georgi L. Stoychev     : AutoAux, RI-MP2 NMR, DLPNO-MP2 response, X2C  
  Van Anh Tran           : RI-MP2 g-tensors                              
  Willem Van den Heuvel  : Paramagnetic NMR                              
  Zikuan Wang            : NOTCH, Electric field optimization            
  Frank Wennmohs         : Technical directorship and infrastructure     
  Hang Xu                : AUTO-CI-Response properties                   
                                                                         
[FACCTs GmbH]                                                            
  Markus Bursch, Nicolas Foglia, Miquel Garcia-Rates, Ingolf Harden, Hagen Neugebauer, Anastasios Papadopoulos, 
  Christoph Riplinger, Bernardo de Souza, Georgi L. Stoychev                                                    
                                                                 
  APM, various basis sets, CI-OPT, improved COSX, DLPNO-Multilevel,           
  DOCKER, DRACO, updates on ESD, Fragmentator, GOAT, IRC, LR-CPCM, L-BFGS, MBIS, meta-GGA TD-DFT gradient, ML-optimized integration grids, 
  MM, NACMEs, nearIR, NEB, NEB-TS, NL-DFT gradient (VV10), 2- and 3-layer-ONIOM, interface openCOSMO-RS, QMMM,   
  Crystal-QMMM, RESP, rigid body optimization, SF, symmetry and pop. for TD-DFT, various functionals, SOLVATOR                                   
                                                                         
[Other institutions]                                                     
  V. Asgeirsson          : NEB                                           
  Christoph Bannwarth    : sTDA-DFT, sTD-DFT, PBEh-3c, B97-3c, D3        
  Giovanni Bistoni       : ETS/NOCV, ADLD/ADEX, COVALED                  
  Martin Brehm           : Molecular dynamics                            
  Ronald Cardenas        : ETS/NOCV                                      
  Martina Colucci        : COVALED                                       
  Sebastian Ehlert       : rSCAN, r2SCAN, r2SCAN-3c, D4, dhf basis sets  
  Marvin Friede          : D4 for Fr, Ra, Ac-Lr                          
  Lars Goerigk           : TD-DFT with DH, B97 family of functionals     
  Stefan Grimme          : VdW corrections, initial TS optimization, DFT functionals, gCP, sTDA/sTD-DF 
  Waldemar Hujo          : DFT-NL                                        
  H. Jonsson             : NEB                                           
  Holger Kruse           : gCP                                           
  Marcel Mueller         : wB97X-3c, vDZP basis set                      
  Hagen Neugebauer       : wr2SCAN, Native XTB                           
  Gianluca Regni         : ADLD/ADEX                                     
  Tobias Risthaus        : pre 6.0 range-separated hybrid DFT and stability analysis
  Lukas Wittmann         : regularized MP2, r2SCAN double-hybrids, wr2SCAN        
                                                                         
We gratefully acknowledge several colleagues who have allowed us to      
interface, adapt or use parts of their codes:                            
  Ed Valeev, F. Pavosevic, A. Kumar             : LibInt (2-el integral package), F12 methods 
  Garnet Chan, S. Sharma, J. Yang, R. Olivares  : DMRG                   
  Ulf Ekstrom                                   : XCFun DFT Library      
  Mihaly Kallay                                 : mrcc  (arbitrary order and MRCC methods)
  Frank Weinhold                                : gennbo (NPA and NBO analysis)           
  Simon Mueller                                 : openCOSMO-RS                            
  Christopher J. Cramer and Donald G. Truhlar   : smd solvation model                     
  S Lehtola, MJT Oliveira, MAL Marques          : LibXC Library                           
  Liviu Ungur et al                             : ANISO software                          


 Your calculation uses the libint2 library for the computation of 2-el integrals
 For citations please refer to: http://libint.valeyev.net

 Your ORCA version has been built with support for libXC version: 7.0.0
 For citations please refer to: https://libxc.gitlab.io

 This ORCA versions uses:
   CBLAS   interface :  Fast vector & matrix operations
   LAPACKE interface :  Fast linear algebra routines
   SCALAPACK package :  Parallel linear algebra routines
   Shared memory     :  Shared parallel matrices
   BLAS/LAPACK       :  OpenBLAS 0.3.29  USE64BITINT DYNAMIC_ARCH NO_AFFINITY Haswell SINGLE_THREADED
        Core in use  :  Haswell
   Copyright (c) 2011-2014, The OpenBLAS Project


  ***********************************
  * Starting time: Sat Aug 30 16:01:08 2025
  * Host name:     chemlab03
  * Process ID:    81226
  * Working dir.:  /home/vivek/mm-project/vivek/xtb-goat/B97-D-opt/h/3
  ***********************************



***************************************
The coordinates will be read from file: /home/vivek/mm-project/vivek/xtb-goat/xtb-goat/h/H_CONF/3.xyz
***************************************


Your calculation utilizes empirical dispersion correction


Warning: RI is on but no J-basis has been assigned. Assigning Def2/J (nothing to worry about!)
================================================================================

----- Orbital basis set information -----
Your calculation utilizes the basis: 6-31G**
   H-He, Li-Ne : W. J. Hehre, R. Ditchfield and J.A. Pople, J. Chem. Phys. 56, 2257 (1972).
                 Note: He and Ne are unpublished basis sets taken from the Gaussian program.
                 Note: Li and B from J. D. Dill and J. A. Pople, J. Chem. Phys. 62, 2921 (1975).
   Na - Ar     : M. M. Francl, W. J. Pietro, W. J. Hehre, J. S. Binkley, M. S. Gordon, 
                 D. J. DeFrees and J. A. Pople, J. Chem. Phys. 77, 3654 (1982).
   K - Zn      : V. A. Rassolov, J. A. Pople, M. A. Ratner, and T. L. Windus, J. Chem. Phys. 109, 1223 (1998).

----- AuxJ basis set information -----
Your calculation utilizes the auxiliary basis: def2/J
   H-Rn: F. Weigend, Phys. Chem. Chem. Phys. 8, 1057 (2006).
   Fr-Lr: K. Eichkorn, F. Weigend, O. Treutler, R. Ahlrichs; Theor. Chem. Acc. 97, 119 (1997).

================================================================================
                                        WARNINGS
                       Please study these warnings very carefully!
================================================================================


WARNING: Geometry Optimization
  ===> : Switching off AutoStart
         For restart on a previous wavefunction, please use MOREAD

INFO   : The exchange functional is Grimme's B97(-D)
         As described in S. Grimme, J. Comput. Chem. 27, 1787 (2006).
         Note that this functional defaults to a pure GGA. 

INFO   : The correlation functional is Grimme's B97(-D)
         As described in S. Grimme, J. Comput. Chem. 27, 1787 (2006).

================================================================================
                                       INPUT FILE
================================================================================
NAME = 3.inp
|  1> ! B97-D 6-31G** opt
|  2> 
|  3> * xyzfile 0 1 /home/vivek/mm-project/vivek/xtb-goat/xtb-goat/h/H_CONF/3.xyz
|  4> 
|  5>                          ****END OF INPUT****
================================================================================

                       *****************************
                       * Geometry Optimization Run *
                       *****************************

Geometry optimization settings:
Update method            Update   .... BFGS
Choice of coordinates    CoordSys .... (2022) Redundant Internals
Initial Hessian          InHess   .... Almloef's Model
Max. no of cycles        MaxIter  .... 72

Convergence Tolerances:
Energy Change            TolE     ....  5.0000e-06 Eh
Max. Gradient            TolMAXG  ....  3.0000e-04 Eh/bohr
RMS Gradient             TolRMSG  ....  1.0000e-04 Eh/bohr
Max. Displacement        TolMAXD  ....  4.0000e-03 bohr
RMS Displacement         TolRMSD  ....  2.0000e-03 bohr
Strict Convergence                .... False

------------------------------------------------------------------------------
                        ORCA OPTIMIZATION COORDINATE SETUP
------------------------------------------------------------------------------

The optimization will be done in redundant internal coordinates (2022)
Making redundant internal coordinates   ...  (2022 redundants) done
Evaluating the initial hessian          ...  (Almloef) done
Evaluating the coordinates              ...  done
Calculating the B-matrix                .... done
Calculating the G-matrix                .... done
The number of degrees of freedom        ....  117

    -----------------------------------------------------------------
                    Redundant Internal Coordinates


    -----------------------------------------------------------------
         Definition                    Initial Value    Approx d2E/dq
    -----------------------------------------------------------------
      1. B(N   1,C   0)                  1.4591         0.434101   
      2. B(C   3,N   1)                  1.4634         0.427264   
      3. B(N   4,C   0)                  1.4516         0.446232   
      4. B(N   4,H   2)                  1.0167         0.422142   
      5. B(H   5,C   0)                  1.0963         0.351848   
      6. B(H   6,C   0)                  1.0891         0.361271   
      7. B(C   7,C   3)                  1.5611         0.333224   
      8. B(C   7,N   4)                  1.4567         0.438064   
      9. B(H   8,N   1)                  1.0142         0.426022   
     10. B(H   9,C   7)                  1.0927         0.356509   
     11. B(H  10,C   7)                  1.0890         0.361407   
     12. B(C  11,C   3)                  1.5292         0.374627   
     13. B(H  12,C   3)                  1.0940         0.354840   
     14. B(C  13,C  11)                  1.5281         0.376233   
     15. B(H  14,C  11)                  1.0912         0.358567   
     16. B(H  15,C  11)                  1.0886         0.361896   
     17. B(C  16,C  13)                  1.5313         0.371852   
     18. B(N  18,H  17)                  1.0161         0.423071   
     19. B(N  18,C  13)                  1.4546         0.441443   
     20. B(H  19,N  18)                  1.0148         0.425081   
     21. B(O  20,C  16)                  1.3506         0.646706   
     22. B(H  21,C  13)                  1.0938         0.355115   
     23. B(H  22,O  20)                  0.9694         0.502304   
     24. B(O  23,C  16)                  1.2091         1.087525   
     25. A(N   4,C   0,H   6)          112.1833         0.332140   
     26. A(N   1,C   0,N   4)          107.1785         0.379643   
     27. A(N   1,C   0,H   5)          107.2419         0.329187   
     28. A(N   4,C   0,H   5)          108.7163         0.330690   
     29. A(H   5,C   0,H   6)          109.2514         0.289931   
     30. A(N   1,C   0,H   6)          112.0931         0.330628   
     31. A(C   3,N   1,H   8)          112.1034         0.336003   
     32. A(C   0,N   1,H   8)          111.8566         0.336892   
     33. A(C   0,N   1,C   3)          105.0393         0.376800   
     34. A(C  11,C   3,H  12)          109.3195         0.323686   
     35. A(N   1,C   3,H  12)          110.1334         0.328785   
     36. A(C   7,C   3,C  11)          112.8840         0.356515   
     37. A(N   1,C   3,C   7)          104.7572         0.362327   
     38. A(N   1,C   3,C  11)          107.9679         0.369669   
     39. A(C   7,C   3,H  12)          111.6231         0.317547   
     40. A(C   0,N   4,H   2)          109.7055         0.337927   
     41. A(H   2,N   4,C   7)          110.1112         0.336889   
     42. A(C   0,N   4,C   7)          103.5041         0.380242   
     43. A(C   3,C   7,H   9)          109.7595         0.317789   
     44. A(C   3,C   7,N   4)          106.1620         0.363876   
     45. A(N   4,C   7,H  10)          111.2825         0.331146   
     46. A(C   3,C   7,H  10)          112.6886         0.318497   
     47. A(N   4,C   7,H   9)          108.1790         0.330400   
     48. A(H   9,C   7,H  10)          108.6635         0.290547   
     49. A(H  14,C  11,H  15)          108.9452         0.290872   
     50. A(C  13,C  11,H  15)          110.2841         0.324962   
     51. A(C   3,C  11,H  15)          111.3594         0.324734   
     52. A(C  13,C  11,H  14)          107.7100         0.324469   
     53. A(C   3,C  11,H  14)          109.7849         0.324241   
     54. A(C   3,C  11,C  13)          108.6854         0.363967   
     55. A(C  11,C  13,C  16)          108.2110         0.363505   
     56. A(N  18,C  13,H  21)          108.4984         0.330605   
     57. A(C  16,C  13,H  21)          108.8266         0.323332   
     58. A(C  11,C  13,H  21)          110.8768         0.323954   
     59. A(C  16,C  13,N  18)          110.4188         0.371276   
     60. A(C  11,C  13,N  18)          110.0042         0.372025   
     61. A(O  20,C  16,O  23)          122.0089         0.478142   
     62. A(C  13,C  16,O  23)          123.9125         0.435178   
     63. A(C  13,C  16,O  20)          112.3093         0.396757   
     64. A(H  17,N  18,H  19)          107.5990         0.301311   
     65. A(C  13,N  18,H  19)          110.1971         0.337710   
     66. A(C  13,N  18,H  17)          109.0659         0.337443   
     67. A(C  16,O  20,H  22)          109.3171         0.370602   
     68. D(C   3,N   1,C   0,H   5)     82.2791         0.016067   
     69. D(H   8,N   1,C   0,N   4)     87.5303         0.016067   
     70. D(C   3,N   1,C   0,N   4)    -34.3114         0.016067   
     71. D(H   8,N   1,C   0,H   5)   -155.8792         0.016067   
     72. D(C   3,N   1,C   0,H   6)   -157.8160         0.016067   
     73. D(C  11,C   3,N   1,H   8)    134.9721         0.015564   
     74. D(H  12,C   3,N   1,C   0)    137.3567         0.015564   
     75. D(C   7,C   3,N   1,C   0)     17.1952         0.015564   
     76. D(C  11,C   3,N   1,C   0)   -103.3471         0.015564   
     77. D(C   7,C   3,N   1,H   8)   -104.4856         0.015564   
     78. D(C   7,N   4,C   0,N   1)     37.1554         0.016983   
     79. D(H   2,N   4,C   0,H   5)    164.0491         0.016983   
     80. D(H   2,N   4,C   0,N   1)    -80.3370         0.016983   
     81. D(C   7,N   4,C   0,H   5)    -78.4585         0.016983   
     82. D(H   2,N   4,C   0,H   6)     43.1121         0.016983   
     83. D(H  10,C   7,N   4,C   0)   -147.9775         0.016363   
     84. D(H   9,C   7,N   4,H   2)   -150.0694         0.016363   
     85. D(H   9,C   7,N   4,C   0)     92.7223         0.016363   
     86. D(C   3,C   7,N   4,C   0)    -25.0295         0.016363   
     87. D(H   9,C   7,C   3,H  12)    129.0591         0.010000   
     88. D(H   9,C   7,C   3,C  11)      5.4451         0.010000   
     89. D(C   3,C   7,N   4,H   2)     92.1788         0.016363   
     90. D(N   4,C   7,C   3,H  12)   -114.2451         0.010000   
     91. D(N   4,C   7,C   3,C  11)    122.1408         0.010000   
     92. D(N   4,C   7,C   3,N   1)      4.9186         0.010000   
     93. D(H   9,C   7,C   3,N   1)   -111.7771         0.010000   
     94. D(H  14,C  11,C   3,N   1)     74.0171         0.011203   
     95. D(C  13,C  11,C   3,H  12)     76.2518         0.011203   
     96. D(C  13,C  11,C   3,C   7)   -158.8708         0.011203   
     97. D(H  14,C  11,C   3,C   7)    -41.2946         0.011203   
     98. D(C  13,C  11,C   3,N   1)    -43.5591         0.011203   
     99. D(H  14,C  11,C   3,H  12)   -166.1720         0.011203   
    100. D(N  18,C  13,C  11,H  15)    -56.2066         0.011294   
    101. D(N  18,C  13,C  11,H  14)     62.5684         0.011294   
    102. D(N  18,C  13,C  11,C   3)   -178.5437         0.011294   
    103. D(C  16,C  13,C  11,H  15)   -176.9123         0.011294   
    104. D(C  16,C  13,C  11,H  14)    -58.1373         0.011294   
    105. D(C  16,C  13,C  11,C   3)     60.7506         0.011294   
    106. D(O  23,C  16,C  13,N  18)    -59.2901         0.010347   
    107. D(O  23,C  16,C  13,C  11)     61.1573         0.010347   
    108. D(O  20,C  16,C  13,H  21)    -13.2099         0.010347   
    109. D(O  20,C  16,C  13,N  18)    105.7771         0.010347   
    110. D(O  20,C  16,C  13,C  11)   -133.7755         0.010347   
    111. D(H  19,N  18,C  13,C  16)    -61.5257         0.016618   
    112. D(H  19,N  18,C  13,C  11)    179.1070         0.016618   
    113. D(H  17,N  18,C  13,H  21)    175.5653         0.016618   
    114. D(H  17,N  18,C  13,C  16)     56.3791         0.016618   
    115. D(H  17,N  18,C  13,C  11)    -62.9882         0.016618   
    116. D(H  22,O  20,C  16,O  23)     -8.0930         0.030884   
    117. D(H  22,O  20,C  16,C  13)   -173.4856         0.030884   
    -----------------------------------------------------------------

Number of atoms                         .... 24
Number of degrees of freedom            .... 117


         *************************************************************
         *                GEOMETRY OPTIMIZATION CYCLE   1            *
         *************************************************************
---------------------------------
CARTESIAN COORDINATES (ANGSTROEM)
---------------------------------
  C     -8.724190    2.250112    0.228655
  N     -7.335920    2.469585    0.620552
  H     -9.679499    2.674879    1.973137
  C     -7.262708    3.885821    0.981923
  N     -9.545942    3.107917    1.062983
  H     -8.822697    2.574481   -0.813927
  H     -9.011352    1.202493    0.307453
  C     -8.747157    4.318654    1.196738
  H     -7.059906    1.865389    1.387001
  H     -9.047031    5.013716    0.408690
  H     -8.910248    4.795146    2.162299
  C     -6.586298    4.631962   -0.168860
  H     -6.670170    4.011861    1.892891
  C     -5.384450    3.815611   -0.642284
  H     -7.277942    4.721686   -1.008033
  H     -6.269549    5.627853    0.136132
  C     -5.891996    2.456134   -1.131130
  H     -5.326978    4.606184   -2.509251
  N     -4.698256    4.517096   -1.715970
  H     -3.890825    3.984299   -2.022703
  O     -5.152641    1.431247   -0.654550
  H     -4.676065    3.654676    0.175443
  H     -5.444575    0.605153   -1.069380
  O     -6.665893    2.315418   -2.049434

----------------------------
CARTESIAN COORDINATES (A.U.)
----------------------------
  NO LB      ZA    FRAG     MASS         X           Y           Z
   0 C     6.0000    0    12.011  -16.486331    4.252095    0.432096
   1 N     7.0000    0    14.007  -13.862879    4.666839    1.172673
   2 H     1.0000    0     1.008  -18.291602    5.054790    3.728688
   3 C     6.0000    0    12.011  -13.724528    7.343138    1.855566
   4 N     7.0000    0    14.007  -18.039217    5.873112    2.008746
   5 H     1.0000    0     1.008  -16.672481    4.865064   -1.538099
   6 H     1.0000    0     1.008  -17.028988    2.272383    0.581002
   7 C     6.0000    0    12.011  -16.529731    8.161073    2.261507
   8 H     1.0000    0     1.008  -13.341290    3.525073    2.621051
   9 H     1.0000    0     1.008  -17.096411    9.474550    0.772313
  10 H     1.0000    0     1.008  -16.837929    9.061512    4.086153
  11 C     6.0000    0    12.011  -12.446299    8.753139   -0.319099
  12 H     1.0000    0     1.008  -12.604795    7.581318    3.577045
  13 C     6.0000    0    12.011  -10.175136    7.210460   -1.213741
  14 H     1.0000    0     1.008  -13.753317    8.922693   -1.904906
  15 H     1.0000    0     1.008  -11.847731   10.635102    0.257252
  16 C     6.0000    0    12.011  -11.134259    4.641421   -2.137525
  17 H     1.0000    0     1.008  -10.066530    8.704427   -4.741798
  18 N     7.0000    0    14.007   -8.878418    8.536074   -3.242714
  19 H     1.0000    0     1.008   -7.352594    7.529234   -3.822354
  20 O     8.0000    0    15.999   -9.737080    2.704664   -1.236920
  21 H     1.0000    0     1.008   -8.836482    6.906337    0.331540
  22 H     1.0000    0     1.008  -10.288756    1.143574   -2.020835
  23 O     8.0000    0    15.999  -12.596711    4.375507   -3.872869

--------------------------------
INTERNAL COORDINATES (ANGSTROEM)
--------------------------------
 C      0   0   0     0.000000000000     0.00000000     0.00000000
 N      1   0   0     1.459125298701     0.00000000     0.00000000
 H      1   2   0     2.033778985963   100.66803710     0.00000000
 C      2   1   3     1.463446231181   105.03930974   297.51608569
 N      3   1   2     1.016729464622    42.21831920   106.58463644
 H      1   2   3     1.096310661550   107.24188007   144.76302271
 H      1   2   3     1.089116475075   112.09308656   264.66792411
 C      5   3   1     1.456651216852   110.11124586   246.71569834
 H      2   1   3     1.014238724415   111.85659620    59.35777077
 H      8   5   3     1.092728102864   108.17899418   209.93060772
 H      8   5   3     1.089014056591   111.28252529   329.23085266
 C      4   2   1     1.529234636907   107.96788924   256.65291932
 H      4   2   1     1.094005228332   110.13335909   137.35671982
 C     12   4   2     1.528069732188   108.68541008   316.44089893
 H     12   4   2     1.091161254284   109.78488009    74.01710300
 H     12   4   2     1.088645825425   111.35942706   194.75804152
 C     14  12   4     1.531257975525   108.21097404    60.75062986
 H     14  12   4     2.028269062122    95.69497065   156.37261395
 N     18  14  12     1.016131269191    42.67224670   122.72081066
 H     19  18  14     1.014840930028   107.59904166   119.52835370
 O     17  14  12     1.350617946218   112.30928324   226.22445905
 H     14  12   4     1.093794892707   110.87683743   301.47115908
 H     21  17  14     0.969401834130   109.31714074   186.51437350
 O     17  14  12     1.209131645474   123.91252899    61.15729509

---------------------------
INTERNAL COORDINATES (A.U.)
---------------------------
 C      0   0   0     0.000000000000     0.00000000     0.00000000
 N      1   0   0     2.757347209621     0.00000000     0.00000000
 H      1   2   0     3.843285300394   100.66803710     0.00000000
 C      2   1   3     2.765512588651   105.03930974   297.51608569
 N      3   1   2     1.921340240424    42.21831920   106.58463644
 H      1   2   3     2.071726908028   107.24188007   144.76302271
 H      1   2   3     2.058131865834   112.09308656   264.66792411
 C      5   3   1     2.752671872492   110.11124586   246.71569834
 H      2   1   3     1.916633423562   111.85659620    59.35777077
 H      8   5   3     2.064956853252   108.17899418   209.93060772
 H      8   5   3     2.057938322948   111.28252529   329.23085266
 C      4   2   1     2.889834658261   107.96788924   256.65291932
 H      4   2   1     2.067370270625   110.13335909   137.35671982
 C     12   4   2     2.887633307371   108.68541008   316.44089893
 H     12   4   2     2.061995938543   109.78488009    74.01710300
 H     12   4   2     2.057242466890   111.35942706   194.75804152
 C     14  12   4     2.893658214125   108.21097404    60.75062986
 H     14  12   4     3.832873053316    95.69497065   156.37261395
 N     18  14  12     1.920209814885    42.67224670   122.72081066
 H     19  18  14     1.917771427246   107.59904166   119.52835370
 O     17  14  12     2.552298029912   112.30928324   226.22445905
 H     14  12   4     2.066972793898   110.87683743   301.47115908
 H     21  17  14     1.831903980226   109.31714074   186.51437350
 O     17  14  12     2.284927669804   123.91252899    61.15729509

---------------------
BASIS SET INFORMATION
---------------------
There are 4 groups of distinct atoms

 Group   1 Type C   : 10s4p1d contracted to 3s2p1d pattern {631/31/1}
 Group   2 Type N   : 10s4p1d contracted to 3s2p1d pattern {631/31/1}
 Group   3 Type H   : 4s1p contracted to 2s1p pattern {31/1}
 Group   4 Type O   : 10s4p1d contracted to 3s2p1d pattern {631/31/1}

Atom   0C    basis set group =>   1
Atom   1N    basis set group =>   2
Atom   2H    basis set group =>   3
Atom   3C    basis set group =>   1
Atom   4N    basis set group =>   2
Atom   5H    basis set group =>   3
Atom   6H    basis set group =>   3
Atom   7C    basis set group =>   1
Atom   8H    basis set group =>   3
Atom   9H    basis set group =>   3
Atom  10H    basis set group =>   3
Atom  11C    basis set group =>   1
Atom  12H    basis set group =>   3
Atom  13C    basis set group =>   1
Atom  14H    basis set group =>   3
Atom  15H    basis set group =>   3
Atom  16C    basis set group =>   1
Atom  17H    basis set group =>   3
Atom  18N    basis set group =>   2
Atom  19H    basis set group =>   3
Atom  20O    basis set group =>   4
Atom  21H    basis set group =>   3
Atom  22H    basis set group =>   3
Atom  23O    basis set group =>   4
---------------------------------
AUXILIARY/J BASIS SET INFORMATION
---------------------------------
There are 4 groups of distinct atoms

 Group   1 Type C   : 12s5p4d2f1g contracted to 6s4p3d1f1g pattern {711111/2111/211/2/1}
 Group   2 Type N   : 12s5p4d2f1g contracted to 6s4p3d1f1g pattern {711111/2111/211/2/1}
 Group   3 Type H   : 5s2p1d contracted to 3s1p1d pattern {311/2/1}
 Group   4 Type O   : 12s5p4d2f1g contracted to 6s4p3d1f1g pattern {711111/2111/211/2/1}

Atom   0C    basis set group =>   1
Atom   1N    basis set group =>   2
Atom   2H    basis set group =>   3
Atom   3C    basis set group =>   1
Atom   4N    basis set group =>   2
Atom   5H    basis set group =>   3
Atom   6H    basis set group =>   3
Atom   7C    basis set group =>   1
Atom   8H    basis set group =>   3
Atom   9H    basis set group =>   3
Atom  10H    basis set group =>   3
Atom  11C    basis set group =>   1
Atom  12H    basis set group =>   3
Atom  13C    basis set group =>   1
Atom  14H    basis set group =>   3
Atom  15H    basis set group =>   3
Atom  16C    basis set group =>   1
Atom  17H    basis set group =>   3
Atom  18N    basis set group =>   2
Atom  19H    basis set group =>   3
Atom  20O    basis set group =>   4
Atom  21H    basis set group =>   3
Atom  22H    basis set group =>   3
Atom  23O    basis set group =>   4
------------------------------------------------------------------------------
                             ORCA STARTUP CALCULATIONS
                           -- RI-GTO INTEGRALS CHOSEN --
------------------------------------------------------------------------------
------------------------------------------------------------------------------
                   ___                                                        
                  /   \      - P O W E R E D   B Y -                         
                 /     \                                                     
                 |  |  |   _    _      __       _____    __    __             
                 |  |  |  | |  | |    /  \     |  _  \  |  |  /  |          
                  \  \/   | |  | |   /    \    | | | |  |  | /  /          
                 / \  \   | |__| |  /  /\  \   | |_| |  |  |/  /          
                |  |  |   |  __  | /  /__\  \  |    /   |      \           
                |  |  |   | |  | | |   __   |  |    \   |  |\   \          
                \     /   | |  | | |  |  |  |  | |\  \  |  | \   \       
                 \___/    |_|  |_| |__|  |__|  |_| \__\ |__|  \__/        
                                                                              
                      - O R C A' S   B I G   F R I E N D -                    
                                      &                                       
                       - I N T E G R A L  F E E D E R -                       
                                                                              
 v1 FN, 2020, v2 2021, v3 2022-2024                                           
------------------------------------------------------------------------------


----------------------
SHARK INTEGRAL PACKAGE
----------------------

Number of atoms                             ...     24
Number of basis functions                   ...    219
Number of shells                            ...    105
Maximum angular momentum                    ...      2
Integral batch strategy                     ... SHARK/LIBINT Hybrid
RI-J (if used) integral strategy            ... SPLIT-RIJ (Revised 2003 algorithm where possible)
Printlevel                                  ...      1
Contraction scheme used                     ... SEGMENTED contraction
Prescreening option                         ... SCHWARTZ
   Thresh                                   ... 2.500e-11
   Tcut                                     ... 2.500e-12
   Tpresel                                  ... 2.500e-12 
Coulomb Range Separation                    ... NOT USED
Exchange Range Separation                   ... NOT USED
Multipole approximations                    ... NOT USED
Finite Nucleus Model                        ... NOT USED
CABS basis                                  ... NOT available
Auxiliary Coulomb fitting basis             ... AVAILABLE
   # of basis functions in Aux-J            ...    682
   # of shells in Aux-J                     ...    230
   Maximum angular momentum in Aux-J        ...      4
Auxiliary J/K fitting basis                 ... NOT available
Auxiliary Correlation fitting basis         ... NOT available
Auxiliary 'external' fitting basis          ... NOT available

Checking pre-screening integrals            ... done (  0.0 sec) Dimension = 105
   => SHARK Basis and OBASIS are compatible. Storing Pre-screening
Shell pair information
Shell pair cut-off parameter TPreSel        ...   2.5e-12
Total number of shell pairs                 ...      5565
Shell pairs after pre-screening             ...      5000
Total number of primitive shell pairs       ...     26835
Primitive shell pairs kept                  ...     15742
          la=0 lb=0:   1591 shell pairs
          la=1 lb=0:   1847 shell pairs
          la=1 lb=1:    566 shell pairs
          la=2 lb=0:    585 shell pairs
          la=2 lb=1:    350 shell pairs
          la=2 lb=2:     61 shell pairs

Checking whether 4 symmetric matrices of dimension 219 fit in memory
:Max Core in MB      =   4096.00
 MB in use           =     10.15
 MB left             =   4085.85
 MB needed           =      0.74
 Data fit in memory  = YES
Calculating RI/J V-Matrix + Cholesky decomp.... done (  0.0 sec)
Calculating Nuclear repulsion               ... done (  0.0 sec) ENN=    698.344196311287 Eh

Diagonalization of the overlap matrix:
Smallest eigenvalue                        ... 2.269e-03
Time for diagonalization                   ...    0.002 sec
Threshold for overlap eigenvalues          ... 1.000e-07
Number of eigenvalues below threshold      ... 0
Time for construction of square roots      ...    0.001 sec
Total time needed                          ...    0.004 sec

-------------------
DFT GRID GENERATION
-------------------

General Integration Accuracy     IntAcc      ... 4.388
Radial Grid Type                 RadialGrid  ... OptM3 with GC (2021)
Angular Grid (max. ang.)         AngularGrid ... 4 (Lebedev-302)
Angular grid pruning method      GridPruning ... 4 (adaptive)
Weight generation scheme         WeightScheme... mBecke (2022)
Basis function cutoff            BFCut       ... 1.0000e-11
Integration weight cutoff        WCut        ... 1.0000e-14
Partially contracted basis set               ... off
Rotationally invariant grid construction     ... off
Angular grids for H and He will be reduced by one unit

Total number of grid points                  ...   107302
Total number of batches                      ...     1690
Average number of points per batch           ...       63
Average number of grid points per atom       ...     4471
Grids setup in   0.5 sec
Initializing property integral containers    ... done (  0.0 sec)

SHARK setup successfully completed in   0.6 seconds

Maximum memory used throughout the entire STARTUP-calculation: 46.3 MB
-------------------------------------------------------------------------------
                                 ORCA GUESS
                   Start orbitals & Density for SCF / CASSCF
-------------------------------------------------------------------------------

------------
SCF SETTINGS
------------
Hamiltonian:
 Density Functional     Method          .... DFT(GTOs)
 Exchange Functional    Exchange        .... B97(D)
 Correlation Functional Correlation     .... B97(D)
 Gradients option       PostSCFGGA      .... off
 RI-approximation to the Coulomb term is turned on
   Number of AuxJ basis functions       .... 682


General Settings:
 Integral files         IntName         .... 3
 Hartree-Fock type      HFTyp           .... RHF
 Total Charge           Charge          ....    0
 Multiplicity           Mult            ....    1
 Number of Electrons    NEL             ....   86
 Basis Dimension        Dim             ....  219
 Nuclear Repulsion      ENuc            ....    698.3441963113 Eh

Convergence Acceleration:
 AO-DIIS                CNVDIIS         .... on
   Start iteration      DIISMaxIt       ....    12
   Startup error        DIISStart       ....  0.200000
   # of expansion vecs  DIISMaxEq       ....     5
   Bias factor          DIISBfac        ....   1.050
   Max. coefficient     DIISMaxC        ....  10.000
 MO-DIIS                CNVKDIIS        .... off
 Trust-Rad. Augm. Hess. CNVTRAH         .... auto
   Auto Start mean grad. ratio tolernc. ....  1.125000
   Auto Start start iteration           ....    50
   Auto Start num. interpolation iter.  ....    10
   Max. Number of Micro iterations      ....    24
   Max. Number of Macro iterations      .... Maxiter - #DIIS iter
   Number of Davidson start vectors     ....     2
   Converg. threshold    (grad. norm)   ....   1.000e-05
   Grad. Scal. Fac. for Micro threshold ....   0.100
   Minimum threshold for Micro iter.    ....   1.000e-02
   NR start threshold (gradient norm)   ....   1.000e-04
   Initial trust radius                 ....   0.400
   Minimum AH scaling param. (alpha)    ....   1.000
   Maximum AH scaling param. (alpha)    .... 1000.000
   Quad. conv. algorithm                .... NR
   White noise on init. David. guess    .... on
   Maximum white noise                  ....   0.010
   Pseudo random numbers                .... off
   Inactive MOs                         .... canonical
   Orbital update algorithm             .... Taylor
   Preconditioner                       .... Diag
   Full preconditioner red. dimension   ....   250
 SOSCF                 CNVSOSCF           .... on
   Start iteration     SOSCFMaxIt         ....   150
   Startup grad/error  SOSCFStart         ....  0.003300
   Hessian update      SOSCFHessUp        .... L-BFGS
   Autom. constraints  SOSCFAutoConstrain .... off
 Level Shifting         CNVShift        .... on
   Level shift para.    LevelShift      ....    0.2500
   Turn off err/grad.   ShiftErr        ....    0.0010
 Zerner damping         CNVZerner       .... off
 Static damping         CNVDamp         .... on
   Fraction old density DampFac         ....    0.7000
   Max. Damping (<1)    DampMax         ....    0.9800
   Min. Damping (>=0)   DampMin         ....    0.0000
   Turn off err/grad.   DampErr         ....    0.1000

SCF Procedure:
 Maximum # iterations   MaxIter         ....   125
 SCF integral mode      SCFMode         .... Direct
   Integral package                     .... SHARK and LIBINT hybrid scheme
 Reset frequency        DirectResetFreq ....    20
 Integral Threshold     Thresh          ....  2.500e-11 Eh
 Primitive CutOff       TCut            ....  2.500e-12 Eh

Convergence Tolerance:
 Convergence Check Mode ConvCheckMode   .... Total+1el-Energy
 Convergence forced     ConvForced      .... 0
 Energy Change          TolE            ....  1.000e-08 Eh
 1-El. energy change                    ....  1.000e-05 Eh
 Orbital Gradient       TolG            ....  1.000e-05
 Orbital Rotation angle TolX            ....  1.000e-05
 DIIS Error             TolErr          ....  5.000e-07

------------------------------
INITIAL GUESS: MODEL POTENTIAL
------------------------------
Loading Hartree-Fock densities                     ... done
Calculating cut-offs                               ... done
Initializing the effective Hamiltonian             ... done
Setting up the integral package (SHARK)            ... done
Starting the Coulomb interaction                   ... done (   0.1 sec)
Making the grid                                    ... done (   0.1 sec)
Mapping shells                                     ... done
Starting the XC term evaluation                    ... done (   0.1 sec)
  promolecular density results
     # of electrons  =     85.993311368
     EX              =    -69.841295724
     EC              =     -3.772420551
     EX+EC           =    -73.613716276
Transforming the Hamiltonian                       ... done (   0.0 sec)
Diagonalizing the Hamiltonian                      ... done (   0.0 sec)
Back transforming the eigenvectors                 ... done (   0.0 sec)
Now organizing SCF variables                       ... done
                      ------------------
                      INITIAL GUESS DONE (   0.4 sec)
                      ------------------
             **** ENERGY FILE WAS UPDATED (3.en.tmp) ****
Finished Guess after   0.4 sec
Maximum memory used throughout the entire GUESS-calculation: 16.4 MB

-------------------------------------------------------------------------------------------
                                      ORCA LEAN-SCF
                              memory conserving SCF solver
-------------------------------------------------------------------------------------------

----------------------------------------D-I-I-S--------------------------------------------
Iteration    Energy (Eh)           Delta-E    RMSDP     MaxDP     DIISErr   Damp  Time(sec)
-------------------------------------------------------------------------------------------
               ***  Starting incremental Fock matrix formation  ***
    1    -550.3805980223077086     0.00e+00  3.37e-03  9.75e-02  2.70e-01  0.700   0.8
    2    -550.5686172318247600    -1.88e-01  2.22e-03  5.04e-02  9.33e-02  0.700   0.7
                               ***Turning on AO-DIIS***
    3    -550.6281678513875022    -5.96e-02  8.39e-04  1.61e-02  2.93e-02  0.700   0.7
    4    -550.6664361950089415    -3.83e-02  1.12e-03  2.02e-02  1.19e-02  0.000   0.7
    5    -550.7548026339196667    -8.84e-02  3.59e-04  7.25e-03  1.03e-02  0.000   0.7
                              *** Initializing SOSCF ***
---------------------------------------S-O-S-C-F--------------------------------------
Iteration    Energy (Eh)           Delta-E    RMSDP     MaxDP     MaxGrad    Time(sec)
--------------------------------------------------------------------------------------
    6    -550.7555774111029905    -7.75e-04  1.39e-04  2.51e-03  2.95e-03     0.7
               *** Restarting incremental Fock matrix formation ***
    7    -550.7556561357840792    -7.87e-05  9.71e-05  2.42e-03  5.02e-04     0.8
    8    -550.7556448107633287     1.13e-05  4.66e-05  1.94e-03  1.47e-03     0.7
    9    -550.7556630882189665    -1.83e-05  3.59e-05  8.14e-04  2.40e-04     0.6
   10    -550.7556624018701541     6.86e-07  1.66e-05  3.62e-04  1.23e-04     0.6
   11    -550.7556642723612867    -1.87e-06  7.48e-06  1.48e-04  1.84e-05     0.6
   12    -550.7556642586972657     1.37e-08  3.58e-06  8.94e-05  2.06e-05     0.6
   13    -550.7556643239682899    -6.53e-08  1.36e-06  2.53e-05  3.87e-06     0.6
   14    -550.7556643263618525    -2.39e-09  7.51e-07  1.48e-05  5.19e-06     0.6
                 **** Energy Check signals convergence ****

               *****************************************************
               *                     SUCCESS                       *
               *           SCF CONVERGED AFTER  14 CYCLES          *
               *****************************************************

             **** ENERGY FILE WAS UPDATED (3.en.tmp) ****

----------------
TOTAL SCF ENERGY
----------------

Total Energy       :       -550.75566432623157 Eh          -14986.82354 eV

Components:
Nuclear Repulsion  :        698.34419631128674 Eh           19002.91167 eV
Electronic Energy  :      -1249.09986063751830 Eh          -33989.73521 eV
One Electron Energy:      -2136.92937636481747 Eh          -58148.80456 eV
Two Electron Energy:        887.82951572729905 Eh           24159.06935 eV

Virial components:
Potential Energy   :      -1098.79513213012706 Eh          -29899.73562 eV
Kinetic Energy     :        548.03946780389560 Eh           14912.91208 eV
Virial Ratio       :          2.00495620604337

DFT components:
N(Alpha)           :       43.000108812606 electrons
N(Beta)            :       43.000108812606 electrons
N(Total)           :       86.000217625211 electrons
E(X)               :      -71.449446453398 Eh       
E(C)               :       -3.771671136750 Eh       
E(XC)              :      -75.221117590149 Eh       

---------------
SCF CONVERGENCE
---------------

  Last Energy change         ...    2.3936e-09  Tolerance :   1.0000e-08
  Last MAX-Density change    ...    1.4757e-05  Tolerance :   1.0000e-07
  Last RMS-Density change    ...    7.5102e-07  Tolerance :   5.0000e-09
  Last DIIS Error            ...    2.9492e-03  Tolerance :   5.0000e-07
  Last Orbital Gradient      ...    5.1858e-06  Tolerance :   1.0000e-05
  Last Orbital Rotation      ...    6.7269e-06  Tolerance :   1.0000e-05


----------------
ORBITAL ENERGIES
----------------

  NO   OCC          E(Eh)            E(eV) 
   0   2.0000     -18.783591      -511.1275 
   1   2.0000     -18.719134      -509.3735 
   2   2.0000     -14.000952      -380.9853 
   3   2.0000     -13.992178      -380.7465 
   4   2.0000     -13.980503      -380.4288 
   5   2.0000     -10.006931      -272.3024 
   6   2.0000      -9.950069      -270.7551 
   7   2.0000      -9.937979      -270.4262 
   8   2.0000      -9.930839      -270.2319 
   9   2.0000      -9.928785      -270.1760 
  10   2.0000      -9.898015      -269.3387 
  11   2.0000      -0.989240       -26.9186 
  12   2.0000      -0.900576       -24.5059 
  13   2.0000      -0.883837       -24.0504 
  14   2.0000      -0.806601       -21.9487 
  15   2.0000      -0.781437       -21.2640 
  16   2.0000      -0.702010       -19.1027 
  17   2.0000      -0.643603       -17.5133 
  18   2.0000      -0.595584       -16.2067 
  19   2.0000      -0.562970       -15.3192 
  20   2.0000      -0.530681       -14.4406 
  21   2.0000      -0.502531       -13.6746 
  22   2.0000      -0.486117       -13.2279 
  23   2.0000      -0.445089       -12.1115 
  24   2.0000      -0.430484       -11.7141 
  25   2.0000      -0.425226       -11.5710 
  26   2.0000      -0.412008       -11.2113 
  27   2.0000      -0.391950       -10.6655 
  28   2.0000      -0.378876       -10.3097 
  29   2.0000      -0.368741       -10.0340 
  30   2.0000      -0.357485        -9.7277 
  31   2.0000      -0.350215        -9.5298 
  32   2.0000      -0.337971        -9.1967 
  33   2.0000      -0.325070        -8.8456 
  34   2.0000      -0.316349        -8.6083 
  35   2.0000      -0.301219        -8.1966 
  36   2.0000      -0.296977        -8.0811 
  37   2.0000      -0.284009        -7.7283 
  38   2.0000      -0.243837        -6.6351 
  39   2.0000      -0.209362        -5.6970 
  40   2.0000      -0.207356        -5.6424 
  41   2.0000      -0.183532        -4.9941 
  42   2.0000      -0.173189        -4.7127 
  43   0.0000       0.018929         0.5151 
  44   0.0000       0.034284         0.9329 
  45   0.0000       0.070972         1.9312 
  46   0.0000       0.085785         2.3343 
  47   0.0000       0.089769         2.4427 
  48   0.0000       0.100053         2.7226 
  49   0.0000       0.113293         3.0829 
  50   0.0000       0.122595         3.3360 
  51   0.0000       0.132232         3.5982 
  52   0.0000       0.134167         3.6509 
  53   0.0000       0.140177         3.8144 
*Only the first 10 virtual orbitals were printed.

                    ********************************
                    * MULLIKEN POPULATION ANALYSIS *
                    ********************************

-----------------------
MULLIKEN ATOMIC CHARGES
-----------------------
   0 C :    0.018089
   1 N :   -0.481241
   2 H :    0.227914
   3 C :    0.006930
   4 N :   -0.451792
   5 H :    0.148713
   6 H :    0.107343
   7 C :   -0.094475
   8 H :    0.241494
   9 H :    0.120900
  10 H :    0.104356
  11 C :   -0.177386
  12 H :    0.097118
  13 C :   -0.017871
  14 H :    0.111901
  15 H :    0.113832
  16 C :    0.566437
  17 H :    0.244546
  18 N :   -0.567898
  19 H :    0.239620
  20 O :   -0.490948
  21 H :    0.102612
  22 H :    0.300380
  23 O :   -0.470572
Sum of atomic charges:   -0.0000000

--------------------------------
MULLIKEN REDUCED ORBITAL CHARGES
--------------------------------
  0 C s       :     3.156227  s :     3.156227
      pz      :     1.010538  p :     2.759717
      px      :     0.769148
      py      :     0.980031
      dz2     :     0.017127  d :     0.065967
      dxz     :     0.013112
      dyz     :     0.007217
      dx2y2   :     0.017095
      dxy     :     0.011416

  1 N s       :     3.613318  s :     3.613318
      pz      :     1.418005  p :     3.833295
      px      :     1.305652
      py      :     1.109638
      dz2     :     0.006088  d :     0.034628
      dxz     :     0.004210
      dyz     :     0.009002
      dx2y2   :     0.009543
      dxy     :     0.005784

  2 H s       :     0.748044  s :     0.748044
      pz      :     0.010442  p :     0.024042
      px      :     0.007797
      py      :     0.005803

  3 C s       :     3.176692  s :     3.176692
      pz      :     0.995355  p :     2.761675
      px      :     0.966351
      py      :     0.799969
      dz2     :     0.009254  d :     0.054703
      dxz     :     0.010302
      dyz     :     0.010891
      dx2y2   :     0.014346
      dxy     :     0.009909

  4 N s       :     3.604420  s :     3.604420
      pz      :     1.178288  p :     3.811814
      px      :     1.558653
      py      :     1.074873
      dz2     :     0.008324  d :     0.035559
      dxz     :     0.003984
      dyz     :     0.008277
      dx2y2   :     0.005066
      dxy     :     0.009908

  5 H s       :     0.840718  s :     0.840718
      pz      :     0.006571  p :     0.010569
      px      :     0.001695
      py      :     0.002302

  6 H s       :     0.881876  s :     0.881876
      pz      :     0.002301  p :     0.010781
      px      :     0.002107
      py      :     0.006373

  7 C s       :     3.193317  s :     3.193317
      pz      :     1.060834  p :     2.852032
      px      :     0.895470
      py      :     0.895728
      dz2     :     0.007548  d :     0.049125
      dxz     :     0.004880
      dyz     :     0.012026
      dx2y2   :     0.013088
      dxy     :     0.011584

  8 H s       :     0.734581  s :     0.734581
      pz      :     0.009836  p :     0.023925
      px      :     0.006655
      py      :     0.007435

  9 H s       :     0.868186  s :     0.868186
      pz      :     0.004609  p :     0.010914
      px      :     0.002571
      py      :     0.003734

 10 H s       :     0.884335  s :     0.884335
      pz      :     0.005716  p :     0.011309
      px      :     0.002514
      py      :     0.003079

 11 C s       :     3.217986  s :     3.217986
      pz      :     0.974705  p :     2.924215
      px      :     0.962550
      py      :     0.986959
      dz2     :     0.005849  d :     0.035186
      dxz     :     0.010120
      dyz     :     0.005601
      dx2y2   :     0.007321
      dxy     :     0.006296

 12 H s       :     0.891678  s :     0.891678
      pz      :     0.005407  p :     0.011204
      px      :     0.003806
      py      :     0.001991

 13 C s       :     3.195106  s :     3.195106
      pz      :     0.907948  p :     2.765364
      px      :     0.948074
      py      :     0.909342
      dz2     :     0.010833  d :     0.057401
      dxz     :     0.014166
      dyz     :     0.010211
      dx2y2   :     0.009956
      dxy     :     0.012236

 14 H s       :     0.876300  s :     0.876300
      pz      :     0.005023  p :     0.011799
      px      :     0.004156
      py      :     0.002620

 15 H s       :     0.874609  s :     0.874609
      pz      :     0.002685  p :     0.011559
      px      :     0.002895
      py      :     0.005980

 16 C s       :     2.984839  s :     2.984839
      pz      :     0.769830  p :     2.324073
      px      :     0.734462
      py      :     0.819782
      dz2     :     0.024507  d :     0.124651
      dxz     :     0.019736
      dyz     :     0.029595
      dx2y2   :     0.019549
      dxy     :     0.031263

 17 H s       :     0.731653  s :     0.731653
      pz      :     0.008907  p :     0.023802
      px      :     0.007392
      py      :     0.007502

 18 N s       :     3.602183  s :     3.602183
      pz      :     1.155322  p :     3.936921
      px      :     1.178953
      py      :     1.602647
      dz2     :     0.004313  d :     0.028794
      dxz     :     0.009522
      dyz     :     0.005256
      dx2y2   :     0.002598
      dxy     :     0.007106

 19 H s       :     0.736493  s :     0.736493
      pz      :     0.005372  p :     0.023887
      px      :     0.010067
      py      :     0.008448

 20 O s       :     3.833007  s :     3.833007
      pz      :     1.718226  p :     4.635352
      px      :     1.687652
      py      :     1.229475
      dz2     :     0.003168  d :     0.022588
      dxz     :     0.004119
      dyz     :     0.005711
      dx2y2   :     0.004071
      dxy     :     0.005519

 21 H s       :     0.886533  s :     0.886533
      pz      :     0.004483  p :     0.010855
      px      :     0.003929
      py      :     0.002444

 22 H s       :     0.661711  s :     0.661711
      pz      :     0.011310  p :     0.037909
      px      :     0.009689
      py      :     0.016910

 23 O s       :     3.864794  s :     3.864794
      pz      :     1.403538  p :     4.578700
      px      :     1.426021
      py      :     1.749140
      dz2     :     0.008550  d :     0.027078
      dxz     :     0.007286
      dyz     :     0.004329
      dx2y2   :     0.003766
      dxy     :     0.003147



                     *******************************
                     * LOEWDIN POPULATION ANALYSIS *
                     *******************************

----------------------
LOEWDIN ATOMIC CHARGES
----------------------
   0 C :   -0.019331
   1 N :   -0.150928
   2 H :    0.118836
   3 C :   -0.031411
   4 N :   -0.202713
   5 H :    0.076350
   6 H :    0.068929
   7 C :   -0.074127
   8 H :    0.124821
   9 H :    0.069239
  10 H :    0.068708
  11 C :   -0.123840
  12 H :    0.064799
  13 C :   -0.044007
  14 H :    0.071803
  15 H :    0.076137
  16 C :    0.106748
  17 H :    0.126562
  18 N :   -0.246812
  19 H :    0.125066
  20 O :   -0.170658
  21 H :    0.070459
  22 H :    0.169303
  23 O :   -0.273931

-------------------------------
LOEWDIN REDUCED ORBITAL CHARGES
-------------------------------
  0 C s       :     2.884933  s :     2.884933
      pz      :     1.050010  p :     2.989550
      px      :     0.902674
      py      :     1.036866
      dz2     :     0.037528  d :     0.144847
      dxz     :     0.029700
      dyz     :     0.014485
      dx2y2   :     0.038641
      dxy     :     0.024493

  1 N s       :     3.186450  s :     3.186450
      pz      :     1.406310  p :     3.887006
      px      :     1.322356
      py      :     1.158340
      dz2     :     0.010986  d :     0.077472
      dxz     :     0.009010
      dyz     :     0.018695
      dx2y2   :     0.025690
      dxy     :     0.013091

  2 H s       :     0.801990  s :     0.801990
      pz      :     0.038536  p :     0.079175
      px      :     0.023296
      py      :     0.017343

  3 C s       :     2.889192  s :     2.889192
      pz      :     1.052147  p :     3.017219
      px      :     1.038995
      py      :     0.926077
      dz2     :     0.019774  d :     0.125001
      dxz     :     0.021987
      dyz     :     0.025969
      dx2y2   :     0.034934
      dxy     :     0.022337

  4 N s       :     3.195676  s :     3.195676
      pz      :     1.225098  p :     3.928035
      px      :     1.555788
      py      :     1.147149
      dz2     :     0.017582  d :     0.079003
      dxz     :     0.008436
      dyz     :     0.019887
      dx2y2   :     0.010007
      dxy     :     0.023091

  5 H s       :     0.883945  s :     0.883945
      pz      :     0.026900  p :     0.039705
      px      :     0.005112
      py      :     0.007692

  6 H s       :     0.892717  s :     0.892717
      pz      :     0.006988  p :     0.038354
      px      :     0.006587
      py      :     0.024779

  7 C s       :     2.904559  s :     2.904559
      pz      :     1.090231  p :     3.061350
      px      :     0.990247
      py      :     0.980872
      dz2     :     0.016408  d :     0.108218
      dxz     :     0.009059
      dyz     :     0.024727
      dx2y2   :     0.031672
      dxy     :     0.026352

  8 H s       :     0.793639  s :     0.793639
      pz      :     0.037090  p :     0.081539
      px      :     0.020418
      py      :     0.024032

  9 H s       :     0.891471  s :     0.891471
      pz      :     0.017128  p :     0.039291
      px      :     0.008117
      py      :     0.014046

 10 H s       :     0.891877  s :     0.891877
      pz      :     0.021638  p :     0.039415
      px      :     0.007317
      py      :     0.010460

 11 C s       :     2.906628  s :     2.906628
      pz      :     1.047748  p :     3.137224
      px      :     1.037132
      py      :     1.052344
      dz2     :     0.012924  d :     0.079988
      dxz     :     0.023112
      dyz     :     0.013394
      dx2y2   :     0.014956
      dxy     :     0.015602

 12 H s       :     0.895757  s :     0.895757
      pz      :     0.019835  p :     0.039444
      px      :     0.013139
      py      :     0.006470

 13 C s       :     2.884174  s :     2.884174
      pz      :     0.993001  p :     3.029613
      px      :     1.023303
      py      :     1.013309
      dz2     :     0.023840  d :     0.130221
      dxz     :     0.031461
      dyz     :     0.023267
      dx2y2   :     0.022146
      dxy     :     0.029507

 14 H s       :     0.887102  s :     0.887102
      pz      :     0.018795  p :     0.041096
      px      :     0.014903
      py      :     0.007398

 15 H s       :     0.883448  s :     0.883448
      pz      :     0.008405  p :     0.040415
      px      :     0.008925
      py      :     0.023085

 16 C s       :     2.864970  s :     2.864970
      pz      :     0.906613  p :     2.730309
      px      :     0.876371
      py      :     0.947326
      dz2     :     0.054782  d :     0.297973
      dxz     :     0.050625
      dyz     :     0.070385
      dx2y2   :     0.044318
      dxy     :     0.077863

 17 H s       :     0.794080  s :     0.794080
      pz      :     0.032335  p :     0.079359
      px      :     0.024724
      py      :     0.022299

 18 N s       :     3.201910  s :     3.201910
      pz      :     1.196856  p :     3.986751
      px      :     1.202617
      py      :     1.587278
      dz2     :     0.009710  d :     0.058151
      dxz     :     0.020749
      dyz     :     0.010354
      dx2y2   :     0.004808
      dxy     :     0.012529

 19 H s       :     0.796106  s :     0.796106
      pz      :     0.015376  p :     0.078828
      px      :     0.034092
      py      :     0.029361

 20 O s       :     3.477253  s :     3.477253
      pz      :     1.702477  p :     4.643430
      px      :     1.678825
      py      :     1.262128
      dz2     :     0.005705  d :     0.049976
      dxz     :     0.006199
      dyz     :     0.012850
      dx2y2   :     0.011187
      dxy     :     0.014034

 21 H s       :     0.890102  s :     0.890102
      pz      :     0.017473  p :     0.039439
      px      :     0.014931
      py      :     0.007034

 22 H s       :     0.714155  s :     0.714155
      pz      :     0.034238  p :     0.116543
      px      :     0.028797
      py      :     0.053508

 23 O s       :     3.552871  s :     3.552871
      pz      :     1.462403  p :     4.664469
      px      :     1.471350
      py      :     1.730717
      dz2     :     0.013971  d :     0.056590
      dxz     :     0.020422
      dyz     :     0.008803
      dx2y2   :     0.007135
      dxy     :     0.006259



                      *****************************
                      * MAYER POPULATION ANALYSIS *
                      *****************************

  NA   - Mulliken gross atomic population
  ZA   - Total nuclear charge
  QA   - Mulliken gross atomic charge
  VA   - Mayer's total valence
  BVA  - Mayer's bonded valence
  FA   - Mayer's free valence

  ATOM       NA         ZA         QA         VA         BVA        FA
  0 C      5.9819     6.0000     0.0181     3.8526     3.8526    -0.0000
  1 N      7.4812     7.0000    -0.4812     2.9739     2.9739     0.0000
  2 H      0.7721     1.0000     0.2279     0.9232     0.9232     0.0000
  3 C      5.9931     6.0000     0.0069     3.8526     3.8526    -0.0000
  4 N      7.4518     7.0000    -0.4518     2.9409     2.9409    -0.0000
  5 H      0.8513     1.0000     0.1487     0.9544     0.9544    -0.0000
  6 H      0.8927     1.0000     0.1073     0.9556     0.9556    -0.0000
  7 C      6.0945     6.0000    -0.0945     3.8577     3.8577     0.0000
  8 H      0.7585     1.0000     0.2415     0.9239     0.9239     0.0000
  9 H      0.8791     1.0000     0.1209     0.9493     0.9493     0.0000
 10 H      0.8956     1.0000     0.1044     0.9541     0.9541     0.0000
 11 C      6.1774     6.0000    -0.1774     3.8384     3.8384    -0.0000
 12 H      0.9029     1.0000     0.0971     0.9532     0.9532    -0.0000
 13 C      6.0179     6.0000    -0.0179     3.8818     3.8818     0.0000
 14 H      0.8881     1.0000     0.1119     0.9704     0.9704     0.0000
 15 H      0.8862     1.0000     0.1138     0.9577     0.9577    -0.0000
 16 C      5.4336     6.0000     0.5664     3.9050     3.9050     0.0000
 17 H      0.7555     1.0000     0.2445     0.9303     0.9303    -0.0000
 18 N      7.5679     7.0000    -0.5679     2.9004     2.9004    -0.0000
 19 H      0.7604     1.0000     0.2396     0.9204     0.9204    -0.0000
 20 O      8.4909     8.0000    -0.4909     1.9900     1.9900    -0.0000
 21 H      0.8974     1.0000     0.1026     0.9561     0.9561     0.0000
 22 H      0.6996     1.0000     0.3004     0.9320     0.9320     0.0000
 23 O      8.4706     8.0000    -0.4706     2.0592     2.0592     0.0000

  Mayer bond orders larger than 0.100000
B(  0-C ,  1-N ) :   0.9509 B(  0-C ,  4-N ) :   1.0089 B(  0-C ,  5-H ) :   0.9227 
B(  0-C ,  6-H ) :   0.9546 B(  1-N ,  3-C ) :   0.9873 B(  1-N ,  8-H ) :   0.8950 
B(  1-N , 16-C ) :   0.1076 B(  2-H ,  4-N ) :   0.9024 B(  3-C ,  7-C ) :   0.9398 
B(  3-C , 11-C ) :   0.9766 B(  3-C , 12-H ) :   0.9446 B(  4-N ,  7-C ) :   1.0207 
B(  7-C ,  9-H ) :   0.9422 B(  7-C , 10-H ) :   0.9523 B( 11-C , 13-C ) :   0.9849 
B( 11-C , 14-H ) :   0.9316 B( 11-C , 15-H ) :   0.9425 B( 13-C , 16-C ) :   0.8935 
B( 13-C , 18-N ) :   1.0352 B( 13-C , 21-H ) :   0.9283 B( 16-C , 20-O ) :   1.0306 
B( 16-C , 23-O ) :   1.8296 B( 17-H , 18-N ) :   0.8974 B( 18-N , 19-H ) :   0.9081 
B( 20-O , 22-H ) :   0.8629 

-------
TIMINGS
-------

Total SCF time: 0 days 0 hours 0 min 10 sec 

Total time                  ....      10.267 sec
Sum of individual times     ....       9.632 sec  ( 93.8%)

SCF preparation             ....       0.032 sec  (  0.3%)
Fock matrix formation       ....       9.471 sec  ( 92.3%)
  Startup                   ....       0.001 sec  (  0.0% of F)
  Split-RI-J                ....       3.624 sec  ( 38.3% of F)
  XC integration            ....       6.395 sec  ( 67.5% of F)
    XC Preparation          ....       0.000 sec  (  0.0% of XC)
    Basis function eval.    ....       2.240 sec  ( 35.0% of XC)
    Density eval.           ....       1.524 sec  ( 23.8% of XC)
    XC-Functional eval.     ....       0.981 sec  ( 15.3% of XC)
    XC-Potential eval.      ....       1.500 sec  ( 23.4% of XC)
Diagonalization             ....       0.000 sec  (  0.0%)
Density matrix formation    ....       0.009 sec  (  0.1%)
Total Energy calculation    ....       0.001 sec  (  0.0%)
Population analysis         ....       0.020 sec  (  0.2%)
Orbital Transformation      ....       0.013 sec  (  0.1%)
Orbital Orthonormalization  ....       0.000 sec  (  0.0%)
DIIS solution               ....       0.037 sec  (  0.4%)
SOSCF solution              ....       0.049 sec  (  0.5%)
Finished LeanSCF after  10.3 sec

Maximum memory used throughout the entire LEANSCF-calculation: 25.9 MB



-------------------------------------------------------------------------------
                          DFT DISPERSION CORRECTION                            
-------------------------------------------------------------------------------
Active option DFTDOPT                   ...         2   
Final C6-coefficient scaling factor     ...     1.250
Final VDW-radii scaling factor          ...     1.100
Damping factor alpha                    ...    20.000
-------------------------   ----------------
Dispersion correction           -0.040370720
-------------------------   ----------------


-------------------------   --------------------
FINAL SINGLE POINT ENERGY      -550.796035045823
-------------------------   --------------------

------------------------------------------------------------------------------
                         ORCA SCF GRADIENT CALCULATION
------------------------------------------------------------------------------

Nuc. rep. gradient        (SHARK) ... done (  0.0 sec)
HCore & Overlap gradient  (SHARK) ... done (  0.2 sec)
Split-RIJ-J gradient      (SHARK) ... done (  1.0 sec)
XC gradient                       ... done (  3.7 sec)
Dispersion correction             ... done (  0.0 sec)

-------------------
DISPERSION GRADIENT
-------------------

   1   C   :   -0.001196456   -0.001027017    0.000939092
   2   N   :    0.000203259    0.000051775   -0.000858849
   3   H   :   -0.001020909   -0.000202270    0.000542554
   4   C   :   -0.000591127    0.001029942   -0.000319201
   5   N   :    0.000071962    0.000177721   -0.000319914
   6   H   :   -0.001153602   -0.001281603    0.000329854
   7   H   :   -0.000253259    0.000305254   -0.000695577
   8   C   :    0.000093831   -0.000073783    0.000738636
   9   H   :    0.000212228   -0.000874831    0.000958124
  10   H   :   -0.000436968    0.000283079    0.001170260
  11   H   :   -0.000295394    0.000399768   -0.000623457
  12   C   :    0.000782325    0.000104593    0.000695648
  13   H   :   -0.000161967    0.000220780    0.000435488
  14   C   :   -0.000509910    0.000164713   -0.000597862
  15   H   :    0.000596033    0.001408473    0.000240795
  16   H   :   -0.000269157    0.000110715   -0.000397913
  17   C   :    0.000996465    0.000361768    0.000213791
  18   H   :    0.000947297    0.000305237   -0.000599520
  19   N   :    0.000614229   -0.000067066    0.000008121
  20   H   :    0.000312492    0.000489206   -0.000630658
  21   O   :    0.000098569   -0.000281617   -0.000136686
  22   H   :    0.000417954   -0.000140516   -0.000455252
  23   H   :   -0.000054434   -0.000037756   -0.000446418
  24   O   :    0.000596538   -0.001426568   -0.000191057

Difference to translation invariance:
           :   -0.0000000000   -0.0000000000   -0.0000000000

Difference to rotation invariance:
           :   -0.0000000000    0.0000000000   -0.0000000000

Norm of the Dispersion gradient    ...    0.0051864315
RMS gradient                       ...    0.0006112268
MAX gradient                       ...    0.0014265678

------------------
CARTESIAN GRADIENT
------------------

   1   C   :    0.002546466    0.001163516    0.002431384
   2   N   :   -0.001523392    0.008320348   -0.010132155
   3   H   :   -0.002368055    0.001419726   -0.002691755
   4   C   :   -0.002041142   -0.007456807   -0.000785145
   5   N   :    0.018581987    0.001470299   -0.002602839
   6   H   :   -0.000455851    0.000661081    0.004205718
   7   H   :    0.001068727    0.005285411   -0.000107715
   8   C   :    0.001634424   -0.002512015   -0.001863180
   9   H   :    0.000672442    0.000574386   -0.002744486
  10   H   :    0.000077917   -0.005942345    0.003412733
  11   H   :    0.002084371   -0.002976363   -0.004939571
  12   C   :   -0.005760431    0.004545770   -0.003768206
  13   H   :   -0.002671897    0.000869100   -0.003196097
  14   C   :    0.000517967   -0.001065302    0.002827923
  15   H   :    0.004303407   -0.001275435    0.005112629
  16   H   :   -0.001348725   -0.006475934   -0.000642047
  17   C   :   -0.006917253   -0.000514032   -0.007511332
  18   H   :    0.002282341    0.002472157    0.003410047
  19   N   :   -0.007080777   -0.011954932   -0.000417169
  20   H   :   -0.002202011    0.003033382    0.002516599
  21   O   :   -0.023513384    0.011724999   -0.012975310
  22   H   :   -0.002089400   -0.000470460   -0.004195915
  23   H   :    0.004522758   -0.000262542    0.005248093
  24   O   :    0.019679511   -0.000634011    0.029407799

Difference to translation invariance:
           :   -0.0000000000   -0.0000000000    0.0000000000

Difference to rotation invariance:
           :   -0.0003063390    0.0003797210    0.0002468382

Norm of the Cartesian gradient     ...    0.0589811980
RMS gradient                       ...    0.0069510008
MAX gradient                       ...    0.0294077987

-------
TIMINGS
-------

Total SCF gradient time     ....        4.909 sec

Densities                   ....       0.000 sec  (  0.0%)
One electron gradient       ....       0.196 sec  (  4.0%)
RI-J Coulomb gradient       ....       0.965 sec  ( 19.6%)
XC gradient                 ....       3.748 sec  ( 76.3%)

Maximum memory used throughout the entire SCFGRAD-calculation: 32.8 MB
------------------------------------------------------------------------------
                         ORCA GEOMETRY RELAXATION STEP
------------------------------------------------------------------------------

Reading the OPT-File                    .... done
Getting information on internals        .... done
Copying old internal coords+grads       .... done
Making the new internal coordinates     .... (2022 redundants) done
Validating the new internal coordinates .... (2022 redundants) done
Calculating the B-matrix                .... done
Calculating the G,G- and P matrices     .... done
Transforming gradient to internals      .... done
Projecting the internal gradient        .... done
Number of atoms                         ....  24
Number of internal coordinates          .... 117
Current Energy                          ....  -550.796035046 Eh
Current gradient norm                   ....     0.058981198 Eh/bohr
Maximum allowed component of the step   ....  0.300
Current trust radius                    ....  0.300
Evaluating the initial hessian          ....  (Almloef) done
Projecting the Hessian                  .... done
Forming the augmented Hessian           .... done
Diagonalizing the augmented Hessian     .... done
Last element of RFO vector              ....  0.899494474
Lowest eigenvalues of augmented Hessian:
 -0.034694789  0.010362990  0.011210380  0.013773538  0.015098257
Length of the computed step             ....  0.485752995
Warning: the length of the step is outside the trust region - taking restricted step instead
The input lambda is                     ....     0.009347
   iter:   5  x=   -0.003616  g=  537.688435 f(x)=     2.762017
   iter:  10  x=   -0.085846  g=    1.853287 f(x)=     0.037840
   iter:  15  x=   -0.094954  g=    0.891411 f(x)=     0.000000
The output lambda is                    ....    -0.094954 (15 iterations)
The final length of the internal step   ....  0.300000000
Converting the step to Cartesian space:
 Initial RMS(Int)=    0.0277350098
Transforming coordinates:
 Iter   0:  RMS(Cart)=    0.2819536103 RMS(Int)=    0.0297549913
 Iter   5:  RMS(Cart)=    0.0000075656 RMS(Int)=    0.0000031604
done
Storing new coordinates                 .... done

                                .--------------------.
          ----------------------|Geometry convergence|-------------------------
          Item                value                   Tolerance       Converged
          ---------------------------------------------------------------------
          RMS gradient        0.0094409263            0.0001000000      NO
          MAX gradient        0.0532259536            0.0003000000      NO
          RMS step            0.0277350098            0.0020000000      NO
          MAX step            0.1272366668            0.0040000000      NO
          -------------------------------------------------------------------------
          ........................................................
          Max(Bonds)      0.0254      Max(Angles)    7.29
          Max(Dihed)        4.89      Max(Improp)    0.00
          ---------------------------------------------------------------------

The optimization has not yet converged - more geometry cycles are needed


    ---------------------------------------------------------------------------
                         Redundant Internal Coordinates
                            (Angstroem and degrees)

        Definition                    Value    dE/dq     Step     New-Value
    ----------------------------------------------------------------------------
     1. B(N   1,C   0)                1.4591 -0.011149  0.0110    1.4702   
     2. B(C   3,N   1)                1.4634 -0.009533  0.0089    1.4723   
     3. B(N   4,C   0)                1.4516 -0.007995  0.0091    1.4607   
     4. B(N   4,H   2)                1.0167 -0.002708  0.0028    1.0195   
     5. B(H   5,C   0)                1.0963 -0.003756  0.0044    1.1008   
     6. B(H   6,C   0)                1.0891 -0.005376  0.0062    1.0954   
     7. B(C   7,C   3)                1.5611 -0.014367  0.0169    1.5781   
     8. B(C   7,N   4)                1.4567 -0.010828  0.0111    1.4677   
     9. B(H   8,N   1)                1.0142 -0.002236  0.0023    1.0165   
    10. B(H   9,C   7)                1.0927 -0.006262  0.0073    1.1001   
    11. B(H  10,C   7)                1.0890 -0.005994  0.0070    1.0960   
    12. B(C  11,C   3)                1.5292 -0.022539  0.0254    1.5546   
    13. B(H  12,C   3)                1.0940 -0.004008  0.0047    1.0987   
    14. B(C  13,C  11)                1.5281 -0.018552  0.0208    1.5489   
    15. B(H  14,C  11)                1.0912 -0.006770  0.0079    1.0991   
    16. B(H  15,C  11)                1.0886 -0.006495  0.0075    1.0962   
    17. B(C  16,C  13)                1.5313 -0.011614  0.0132    1.5444   
    18. B(N  18,H  17)                1.0161 -0.003867  0.0039    1.0201   
    19. B(N  18,C  13)                1.4546 -0.010486  0.0103    1.4649   
    20. B(H  19,N  18)                1.0148 -0.004103  0.0042    1.0190   
    21. B(O  20,C  16)                1.3506 -0.021825  0.0156    1.3662   
    22. B(H  21,C  13)                1.0938 -0.004416  0.0052    1.0990   
    23. B(H  22,O  20)                0.9694 -0.003381  0.0030    0.9724   
    24. B(O  23,C  16)                1.2091 -0.034856  0.0156    1.2247   
    25. A(N   4,C   0,H   6)          112.18  0.000450   -0.09    112.09   
    26. A(N   1,C   0,N   4)          107.18 -0.000550    0.17    107.35   
    27. A(N   1,C   0,H   5)          107.24  0.001575   -0.12    107.12   
[...]
      px      :     0.010189
      py      :     0.007823

 20 O s       :     3.846144  s :     3.846144
      pz      :     1.680004  p :     4.605713
      px      :     1.647866
      py      :     1.277843
      dz2     :     0.003014  d :     0.023335
      dxz     :     0.004235
      dyz     :     0.006296
      dx2y2   :     0.004229
      dxy     :     0.005561

 21 H s       :     0.874855  s :     0.874855
      pz      :     0.004864  p :     0.010745
      px      :     0.003580
      py      :     0.002301

 22 H s       :     0.650691  s :     0.650691
      pz      :     0.012504  p :     0.037384
      px      :     0.009036
      py      :     0.015844

 23 O s       :     3.878090  s :     3.878090
      pz      :     1.400068  p :     4.548347
      px      :     1.415579
      py      :     1.732701
      dz2     :     0.008028  d :     0.026881
      dxz     :     0.007185
      dyz     :     0.003741
      dx2y2   :     0.004147
      dxy     :     0.003780



                     *******************************
                     * LOEWDIN POPULATION ANALYSIS *
                     *******************************

----------------------
LOEWDIN ATOMIC CHARGES
----------------------
   0 C :   -0.023030
   1 N :   -0.203969
   2 H :    0.118671
   3 C :   -0.031108
   4 N :   -0.216809
   5 H :    0.075775
   6 H :    0.068303
   7 C :   -0.077332
   8 H :    0.120415
   9 H :    0.068643
  10 H :    0.066211
  11 C :   -0.127087
  12 H :    0.064343
  13 C :   -0.037694
  14 H :    0.074604
  15 H :    0.078631
  16 C :    0.132024
  17 H :    0.129117
  18 N :   -0.249602
  19 H :    0.127692
  20 O :   -0.161107
  21 H :    0.075989
  22 H :    0.179507
  23 O :   -0.252189

-------------------------------
LOEWDIN REDUCED ORBITAL CHARGES
-------------------------------
  0 C s       :     2.900196  s :     2.900196
      pz      :     1.056229  p :     2.986648
      px      :     0.910584
      py      :     1.019835
      dz2     :     0.036032  d :     0.136186
      dxz     :     0.024633
      dyz     :     0.012720
      dx2y2   :     0.034155
      dxy     :     0.028647

  1 N s       :     3.227170  s :     3.227170
      pz      :     1.326951  p :     3.902676
      px      :     1.366204
      py      :     1.209521
      dz2     :     0.017729  d :     0.074123
      dxz     :     0.007115
      dyz     :     0.013394
      dx2y2   :     0.025902
      dxy     :     0.009983

  2 H s       :     0.803527  s :     0.803527
      pz      :     0.039563  p :     0.077802
      px      :     0.022190
      py      :     0.016049

  3 C s       :     2.903238  s :     2.903238
      pz      :     1.053711  p :     3.009262
      px      :     1.033080
      py      :     0.922470
      dz2     :     0.020462  d :     0.118608
      dxz     :     0.021907
      dyz     :     0.020664
      dx2y2   :     0.031444
      dxy     :     0.024132

  4 N s       :     3.230236  s :     3.230236
      pz      :     1.242434  p :     3.912029
      px      :     1.517587
      py      :     1.152009
      dz2     :     0.017873  d :     0.074545
      dxz     :     0.007236
      dyz     :     0.016524
      dx2y2   :     0.009050
      dxy     :     0.023863

  5 H s       :     0.885625  s :     0.885625
      pz      :     0.026837  p :     0.038600
      px      :     0.004978
      py      :     0.006784

  6 H s       :     0.894102  s :     0.894102
      pz      :     0.006905  p :     0.037594
      px      :     0.007393
      py      :     0.023296

  7 C s       :     2.921174  s :     2.921174
      pz      :     1.088360  p :     3.055491
      px      :     0.980806
      py      :     0.986326
      dz2     :     0.015648  d :     0.100667
      dxz     :     0.007913
      dyz     :     0.023978
      dx2y2   :     0.026855
      dxy     :     0.026273

  8 H s       :     0.801363  s :     0.801363
      pz      :     0.040743  p :     0.078222
      px      :     0.017678
      py      :     0.019801

  9 H s       :     0.892844  s :     0.892844
      pz      :     0.016226  p :     0.038513
      px      :     0.007297
      py      :     0.014990

 10 H s       :     0.895235  s :     0.895235
      pz      :     0.021498  p :     0.038553
      px      :     0.006823
      py      :     0.010232

 11 C s       :     2.912851  s :     2.912851
      pz      :     1.049188  p :     3.136364
      px      :     1.031976
      py      :     1.055200
      dz2     :     0.014805  d :     0.077872
      dxz     :     0.023680
      dyz     :     0.009562
      dx2y2   :     0.017489
      dxy     :     0.012336

 12 H s       :     0.897107  s :     0.897107
      pz      :     0.018186  p :     0.038549
      px      :     0.013846
      py      :     0.006518

 13 C s       :     2.892810  s :     2.892810
      pz      :     1.002373  p :     3.021861
      px      :     1.025825
      py      :     0.993663
      dz2     :     0.019435  d :     0.123022
      dxz     :     0.027959
      dyz     :     0.025201
      dx2y2   :     0.024944
      dxy     :     0.025483

 14 H s       :     0.885105  s :     0.885105
      pz      :     0.018419  p :     0.040291
      px      :     0.014799
      py      :     0.007073

 15 H s       :     0.882140  s :     0.882140
      pz      :     0.007375  p :     0.039228
      px      :     0.007507
      py      :     0.024346

 16 C s       :     2.873131  s :     2.873131
      pz      :     0.908537  p :     2.718009
      px      :     0.877328
      py      :     0.932143
      dz2     :     0.045917  d :     0.276836
      dxz     :     0.045651
      dyz     :     0.060733
      dx2y2   :     0.049016
      dxy     :     0.075519

 17 H s       :     0.793573  s :     0.793573
      pz      :     0.034873  p :     0.077309
      px      :     0.021490
      py      :     0.020945

 18 N s       :     3.232505  s :     3.232505
      pz      :     1.231587  p :     3.960476
      px      :     1.175432
      py      :     1.553457
      dz2     :     0.010497  d :     0.056621
      dxz     :     0.017558
      dyz     :     0.009177
      dx2y2   :     0.005965
      dxy     :     0.013424

 19 H s       :     0.795328  s :     0.795328
      pz      :     0.015389  p :     0.076981
      px      :     0.035149
      py      :     0.026442

 20 O s       :     3.498080  s :     3.498080
      pz      :     1.665420  p :     4.614355
      px      :     1.646355
      py      :     1.302580
      dz2     :     0.005116  d :     0.048672
      dxz     :     0.006175
      dyz     :     0.013146
      dx2y2   :     0.009888
      dxy     :     0.014347

 21 H s       :     0.885117  s :     0.885117
      pz      :     0.019098  p :     0.038894
      px      :     0.013280
      py      :     0.006516

 22 H s       :     0.706636  s :     0.706636
      pz      :     0.038328  p :     0.113858
      px      :     0.026119
      py      :     0.049410

 23 O s       :     3.568584  s :     3.568584
      pz      :     1.446664  p :     4.628663
      px      :     1.466476
      py      :     1.715523
      dz2     :     0.012182  d :     0.054942
      dxz     :     0.020133
      dyz     :     0.007378
      dx2y2   :     0.008269
      dxy     :     0.006979



                      *****************************
                      * MAYER POPULATION ANALYSIS *
                      *****************************

  NA   - Mulliken gross atomic population
  ZA   - Total nuclear charge
  QA   - Mulliken gross atomic charge
  VA   - Mayer's total valence
  BVA  - Mayer's bonded valence
  FA   - Mayer's free valence

  ATOM       NA         ZA         QA         VA         BVA        FA
  0 C      6.0122     6.0000    -0.0122     3.8700     3.8700    -0.0000
  1 N      7.4514     7.0000    -0.4514     2.9302     2.9302     0.0000
  2 H      0.7739     1.0000     0.2261     0.9232     0.9232     0.0000
  3 C      6.0127     6.0000    -0.0127     3.8740     3.8740     0.0000
  4 N      7.4527     7.0000    -0.4527     2.9172     2.9172     0.0000
  5 H      0.8519     1.0000     0.1481     0.9491     0.9491    -0.0000
  6 H      0.8925     1.0000     0.1075     0.9558     0.9558     0.0000
  7 C      6.0956     6.0000    -0.0956     3.8417     3.8417     0.0000
  8 H      0.7704     1.0000     0.2296     0.9250     0.9250     0.0000
  9 H      0.8808     1.0000     0.1192     0.9501     0.9501     0.0000
 10 H      0.8993     1.0000     0.1007     0.9542     0.9542     0.0000
 11 C      6.1780     6.0000    -0.1780     3.8342     3.8342    -0.0000
 12 H      0.9054     1.0000     0.0946     0.9546     0.9546     0.0000
 13 C      6.0284     6.0000    -0.0284     3.8670     3.8670     0.0000
 14 H      0.8829     1.0000     0.1171     0.9696     0.9696     0.0000
 15 H      0.8845     1.0000     0.1155     0.9585     0.9585    -0.0000
 16 C      5.4484     6.0000     0.5516     3.8922     3.8922     0.0000
 17 H      0.7548     1.0000     0.2452     0.9251     0.9251     0.0000
 18 N      7.5640     7.0000    -0.5640     2.8935     2.8935     0.0000
 19 H      0.7578     1.0000     0.2422     0.9183     0.9183     0.0000
 20 O      8.4752     8.0000    -0.4752     2.0315     2.0315     0.0000
 21 H      0.8856     1.0000     0.1144     0.9547     0.9547     0.0000
 22 H      0.6881     1.0000     0.3119     0.9232     0.9232     0.0000
 23 O      8.4533     8.0000    -0.4533     2.0714     2.0714    -0.0000

  Mayer bond orders larger than 0.100000
B(  0-C ,  1-N ) :   0.9767 B(  0-C ,  4-N ) :   0.9939 B(  0-C ,  5-H ) :   0.9298 
B(  0-C ,  6-H ) :   0.9538 B(  1-N ,  3-C ) :   1.0047 B(  1-N ,  8-H ) :   0.8983 
B(  2-H ,  4-N ) :   0.9019 B(  3-C ,  7-C ) :   0.9273 B(  3-C , 11-C ) :   0.9820 
B(  3-C , 12-H ) :   0.9445 B(  4-N ,  7-C ) :   1.0098 B(  7-C ,  9-H ) :   0.9428 
B(  7-C , 10-H ) :   0.9521 B( 11-C , 13-C ) :   0.9817 B( 11-C , 14-H ) :   0.9291 
B( 11-C , 15-H ) :   0.9361 B( 13-C , 16-C ) :   0.9022 B( 13-C , 18-N ) :   1.0109 
B( 13-C , 21-H ) :   0.9284 B( 16-C , 20-O ) :   1.0625 B( 16-C , 23-O ) :   1.8407 
B( 17-H , 18-N ) :   0.8985 B( 18-N , 19-H ) :   0.9048 B( 20-O , 22-H ) :   0.8567 


-------
TIMINGS
-------

Total SCF time: 0 days 0 hours 0 min 3 sec 

Total time                  ....       3.896 sec
Sum of individual times     ....       3.303 sec  ( 84.8%)

SCF preparation             ....       0.034 sec  (  0.9%)
Fock matrix formation       ....       3.219 sec  ( 82.6%)
  Startup                   ....       0.001 sec  (  0.0% of F)
  Split-RI-J                ....       1.334 sec  ( 41.4% of F)
  XC integration            ....       2.404 sec  ( 74.7% of F)
    XC Preparation          ....       0.000 sec  (  0.0% of XC)
    Basis function eval.    ....       0.869 sec  ( 36.2% of XC)
    Density eval.           ....       0.575 sec  ( 23.9% of XC)
    XC-Functional eval.     ....       0.394 sec  ( 16.4% of XC)
    XC-Potential eval.      ....       0.509 sec  ( 21.2% of XC)
Diagonalization             ....       0.000 sec  (  0.0%)
Density matrix formation    ....       0.002 sec  (  0.1%)
Total Energy calculation    ....       0.000 sec  (  0.0%)
Population analysis         ....       0.018 sec  (  0.5%)
Orbital Transformation      ....       0.008 sec  (  0.2%)
Orbital Orthonormalization  ....       0.000 sec  (  0.0%)
DIIS solution               ....       0.005 sec  (  0.1%)
SOSCF solution              ....       0.016 sec  (  0.4%)
Finished LeanSCF after   3.9 sec

Maximum memory used throughout the entire LEANSCF-calculation: 26.0 MB



-------------------------------------------------------------------------------
                          DFT DISPERSION CORRECTION                            
-------------------------------------------------------------------------------
Active option DFTDOPT                   ...         2   
Final C6-coefficient scaling factor     ...     1.250
Final VDW-radii scaling factor          ...     1.100
Damping factor alpha                    ...    20.000
-------------------------   ----------------
Dispersion correction           -0.038465732
-------------------------   ----------------


-------------------------   --------------------
FINAL SINGLE POINT ENERGY      -550.807755260740
-------------------------   --------------------

                                *** OPTIMIZATION RUN DONE ***


------------------------------------------------------------------------------
                              ORCA PROPERTY CALCULATIONS
------------------------------------------------------------------------------

GBWName                                 ... 3.gbw
Number of atoms                         ...     24
Number of basis functions               ...    219
Max core memory                         ...   4096 MB

Electric properties:
Dipole moment                           ... YES
Quadrupole moment                       ...  NO
Static polarizability (Dipole/Dipole)   ...  NO
Static polarizability (Dipole/Quad.)    ...  NO
Static polarizability (Quad./Quad.)     ...  NO
Static polarizability (Velocity)        ...  NO
Static hyperpolarizability              ...  NO

Atomic electric properties:
Dipole moment                           ...  NO
Quadrupole moment                       ...  NO
Static polarizability                   ...  NO

Choice of electric origin               ... Center of mass
Position of electric origin             ...   -12.953362     5.954172    -0.493636

General magnetic properties:
Magnetizability                         ...  NO

EPR properties:
g-Tensor (aka g-matrix)                 ...  NO
Zero-Field splitting spin-orbit         ...  NO
Zero-field splitting spin-spin          ...  NO
Hyperfine couplings                     ...  NO (   0 nuclei)
Quadrupole couplings                    ...  NO (   0 nuclei)
Contact density                         ...  NO (   0 nuclei)

NMR properties:
Chemical shifts                         ...  NO (   0 nuclei)
Spin-rotation constants                 ...  NO (   0 nuclei)
Spin-spin couplings                     ...  NO (   0 nuclei,    0 pairs)

Choice of magnetic origin               ... GIAO
Position of magnetic origin             ...     0.000000     0.000000     0.000000

Properties with geometric perturbations:
SCF Hessian                             ...  NO
IR spectrum                             ...  NO
VCD spectrum                            ...  NO
X-ray spectroscopy properties:
SCF XES/XAS/RIXS spectra                ...  NO

SCF SOC stabilization energy            ...  NO
Diagonal Born-Oppenheimer correction    ...  NO

-------------
DIPOLE MOMENT
-------------

Method             : SCF
Type of density    : Electron Density
Multiplicity       :   1
Irrep              :   0
Energy             :  -550.7692895288441832 Eh
Basis              : AO
                                X                 Y                 Z
Electronic contribution:      3.357145379      -4.672466980      -3.567624504
Nuclear contribution   :     -3.031086828       4.245045865       4.378898304
                        -----------------------------------------
Total Dipole Moment    :      0.326058550      -0.427421115       0.811273801
                        -----------------------------------------
Magnitude (a.u.)       :      0.973225651
Magnitude (Debye)      :      2.473743013



--------------------
Rotational spectrum 
--------------------
 
Rotational constants in cm-1:             0.062886             0.024985             0.021008 
Rotational constants in MHz :          1885.263910           749.036477           629.798119 

Dipole components along the rotational axes: 
x,y,z [a.u.] :     0.144255     0.247379     0.930141 
x,y,z [Debye]:     0.366667     0.628786     2.364231 

 

Dipole moment calculation done in   0.0 sec 

Maximum memory used throughout the entire PROP-calculation: 14.9 MB

--------------------------------
SUGGESTED CITATIONS FOR THIS RUN
--------------------------------

Below you find a list of papers that are relevant to this ORCA run
We neither can nor want to force you to cite these papers, but we appreciate if you do
You receive ORCA, which is the product of decades of hard work by many enthusiastic individuals, for free
The only thing we kindly ask in return is that you cite our papers,
We deeply appreciate it, if you show your appreciation for ORCA by not just citing the generic ORCA reference.

Please note that relegating all ORCA citations to the supporting information does *not* help us.
SI sections are not indexed - citations you put there will not count into any citation statistics
But we need these citations in order to attract the funding resources that allow us to do what we are doing

Therefore, if you are a happy ORCA user, please consider citing a few of the papers listed below in the main body of your paper

In addition to the list printed below, the program has created the file 3.bibtex that contains the list in bibtex format
You can import this file easily into all common literature databanks and citation aid programs


List of essential papers. We consider these as the minimum necessary citations

  1. Neese, F.
     Software update: the ORCA program system, version 6.0
     WIRES Comput. Molec. Sci. 2025 15(1), e70019
     doi.org/10.1002/wcms.7019

List of papers to cite with high priority. The work reported in these papers was absolutely
necessary for this run to complete.
Our perspective: the developers of density functionals and basis sets usually get cited in chemistry papers
Good! But without the algorithms to do something with them, the functionals or basis sets would not do anything.
Hence, in our opinion, the algorithm design and method developments papers are equally worthy of getting cited

  1. Neese, F.
     An improvement of the resolution of the identity approximation for the formation of the Coulomb matrix
     J. Comp. Chem. 2003 24(14), 1740-1747
     doi.org/10.1002/jcc.10318
  2. Grimme, S.
     Semiempirical GGA-type density functional constructed with a long-range dispersion correction
     J.Comput.Chem. 2006 27(15), 1787-1799
     doi.org/10.1002/jcc.20495
  3. Neese, F.
     The SHARK Integral Generation and Digestion System
     J. Comp. Chem. 2022 44(3), 381
     doi.org/10.1002/jcc.26942

List of suggested additional citations. These are papers that are important in the 'surrounding' of 
of this run, or papers that preceded the highly important papers. If you like your results we are grateful for a citation.

  1. Neese, F.
     The ORCA program system
     WIRES Comput. Molec. Sci. 2012 2(1), 73-78
     doi.org/10.1002/wcms.81
  2. Neese, F.
     Software update: the ORCA program system, version 4.0
     WIRES Comput. Molec. Sci. 2018 8(1), 1-6
     doi.org/10.1002/wcms.1327
  3. Neese, F.; Wennmohs, F.; Becker, U.; Riplinger, C.
     The ORCA quantum chemistry program package
     J. Chem. Phys. 2020 152(22), 224108
     doi.org/10.1063/5.0004608
  4. Neese, F.
     Software update: The ORCA program system—Version 5.0
     WIRES Comput. Molec. Sci. 2022 12(1), e1606
     doi.org/10.1002/wcms.1606

List of optional additional citations

  1. Neese, F.
     Approximate second-order SCF convergence for spin unrestricted wavefunctions
     Chem. Phys. Lett. 2000 325(1-3), 93-98
     doi.org/10.1016/s0009-2614(00)00662-x

Timings for individual modules:

Sum of individual times          ...      156.115 sec (=   2.602 min)
Startup calculation              ...        7.481 sec (=   0.125 min)   4.8 %
SCF iterations                   ...       91.707 sec (=   1.528 min)  58.7 %
Property calculations            ...        0.039 sec (=   0.001 min)   0.0 %
SCF Gradient evaluation          ...       56.859 sec (=   0.948 min)  36.4 %
Geometry relaxation              ...        0.030 sec (=   0.000 min)   0.0 %
                             ****ORCA TERMINATED NORMALLY****
TOTAL RUN TIME: 0 days 0 hours 2 minutes 36 seconds 451 msec
