
                                 *****************
                                 * O   R   C   A *
                                 *****************

                                            #,                                       
                                            ###                                      
                                            ####                                     
                                            #####                                    
                                            ######                                   
                                           ########,                                 
                                     ,,################,,,,,                         
                               ,,#################################,,                 
                          ,,##########################################,,             
                       ,#########################################, ''#####,          
                    ,#############################################,,   '####,        
                  ,##################################################,,,,####,       
                ,###########''''           ''''###############################       
              ,#####''   ,,,,##########,,,,          '''####'''          '####       
            ,##' ,,,,###########################,,,                        '##       
           ' ,,###''''                  '''############,,,                           
         ,,##''                                '''############,,,,        ,,,,,,###''
      ,#''                                            '''#######################'''  
     '                                                          ''''####''''         
             ,#######,   #######,   ,#######,      ##                                
            ,#'     '#,  ##    ##  ,#'     '#,    #''#        ,####,    ,#,          
            ##       ##  ##   ,#'  ##            #'  '#       #'       ,# #          
            ##       ##  #######   ##           ,######,      #####,      #          
            '#,     ,#'  ##    ##  '#,     ,#' ,#      #,     #,   #      #          
             '#######'   ##     ##  '#######'  #'      '#     '####' #    #          



                #########################################################
                #                        -***-                          #
                #          Department of theory and spectroscopy        #
                #                                                       #
                #                      Frank Neese                      #
                #                                                       #
                #     Directorship, Architecture, Infrastructure        #
                #                    SHARK, DRIVERS                     #
                #        Core code/Algorithms in most modules           #
                #                                                       #
                #        Max Planck Institute fuer Kohlenforschung      #
                #                Kaiser Wilhelm Platz 1                 #
                #                 D-45470 Muelheim/Ruhr                 #
                #                      Germany                          #
                #                                                       #
                #                  All rights reserved                  #
                #                        -***-                          #
                #########################################################


                         Program Version 6.1.0  -  RELEASE   -
                                (GIT: $679e74b$)
                          ($2025-06-10 18:02:51 +0200$)


 With contributions from (in alphabetic order):
[Max-Planck-Institut fuer Kohlenforschung]                               
  Daniel Aravena         : Magnetic Suceptibility                        
  Michael Atanasov       : Ab Initio Ligand Field Theory (pilot matlab implementation)
  Alexander A. Auer      : GIAO ZORA, VPT2 properties, NMR spectrum      
  Ute Becker             : All parallelization in ORCA, NUMFREQ, NUMCALC 
  Giovanni Bistoni       : ED, misc. LED, open-shell LED, HFLD           
  Dmytro Bykov           : pre 5.0 version of the SCF Hessian            
  Marcos Casanova-Páez   : Triplet and SCS-CIS(D). UHF-(DLPNO)-IP/EA/STEOM-CCSD. UHF-CVS-IP/STEOM-CCSD   
  Vijay G. Chilkuri      : MRCI spin determinant printing, contributions to CSF-ICE 
  Pauline Colinet        : FMM embedding                                 
  Dipayan Datta          : RHF DLPNO-CCSD density                        
  Achintya Kumar Dutta   : EOM-CC, STEOM-CC                              
  Nicolas Foglia         : Exact transition moments, OPA infrastructure, MCD improvements    
  Dmitry Ganyushin       : Spin-Orbit,Spin-Spin,Magnetic field MRCI      
  Miquel Garcia-Rates    : C-PCM and meta-GGA Hessian, CCSD/C-PCM, Gaussian charge scheme 
  Tiago L. C. Gouveia    : GS-ROHF, GS-ROCIS                             
  Yang Guo               : DLPNO-NEVPT2, F12-NEVPT2, CIM, IAO-localization        
  Andreas Hansen         : Spin unrestricted coupled pair/coupled cluster methods 
  Ingolf Harden          : AUTO-CI MPn and infrastructure                
  Benjamin Helmich-Paris : MC-RPA, TRAH-(SCF,CASSCF), AVAS, COSX integrals, SCF dyn. polar., MC-PDFT, srDFT 
  Lee Huntington         : MR-EOM, pCC                                   
  Robert Izsak           : Overlap fitted RIJCOSX, COSX-SCS-MP3, EOM     
  Riya Kayal             : Wick's Theorem for AUTO-CI, AUTO-CI UHF-CCSDT 
  Emily Kempfer          : AUTO-CI RHF CISDT and CCSDT, approximate NEVPT4
  Christian Kollmar      : KDIIS, OOCD, Brueckner-CCSD(T), CCSD density, CASPT2, CASPT2-K, improved NEVPT2 
  Axel Koslowski         : Symmetry handling                             
  Simone Kossmann        : meta-GGA functionals, TD-DFT gradient, OOMP2, (MP2 Hessian; deprecated post 5.0) 
  Lucas Lang             : DCDCAS, Hyperfine gauge corrections, ICE-SOC+SSC
  Marvin Lechner         : AUTO-CI (C++ implementation), FIC-MRCC        
  Spencer Leger          : CASSCF response                               
  Dagmar Lenk            : GEPOL surface, SMD, ORCA-2-JSON               
  Dimitrios Liakos       : Extrapolation schemes; Compound Job, Property file
  Dimitrios Manganas     : Further ROCIS development; embedding schemes. LFT, Crystal Embedding 
  Dimitrios Pantazis     : SARC Basis sets                               
  Anastasios Papadopoulos: AUTO-CI, single reference methods and gradients 
  Taras Petrenko         : pre 6.0 DFT Hessian and TD-DFT gradient,  ECA, NRVS 
  Petra Pikulova         : Analytic Raman intensities                    
  Peter Pinski           : DLPNO-MP2, DLPNO-MP2 Gradient                 
  Shashank Vittal Rao    : ES-AILFT, MagRelax                            
  Christoph Reimann      : Effective Core Potentials                     
  Marius Retegan         : Local ZFS, SOC                                
  Christoph Riplinger    : Optimizer, TS searches, QM/MM, DLPNO-CCSD(T), (RO)-DLPNO pert. Triples 
  Michael Roemelt        : Original ROCIS implementation, recursive CI coupling coefficients
  Masaaki Saitow         : Open-shell DLPNO-CCSD energy and density      
  Barbara Sandhoefer     : DKH picture change effects                    
  Yorick L. A. Schmerwitz: GMF and freeze-and-release deltaSCF, NEB S-IDPP initial path                    
  Kantharuban Sivalingam : CASSCF convergence/infrastructure, NEVPT2, NEVPT3, NEVPT4(SD), FIC-MRCI and CEPA variants
  Bernardo de Souza      : ESD, SOC TD-DFT                               
  Georgi L. Stoychev     : AutoAux, RI-MP2 NMR, DLPNO-MP2 response, X2C  
  Van Anh Tran           : RI-MP2 g-tensors                              
  Willem Van den Heuvel  : Paramagnetic NMR                              
  Zikuan Wang            : NOTCH, Electric field optimization            
  Frank Wennmohs         : Technical directorship and infrastructure     
  Hang Xu                : AUTO-CI-Response properties                   
                                                                         
[FACCTs GmbH]                                                            
  Markus Bursch, Nicolas Foglia, Miquel Garcia-Rates, Ingolf Harden, Hagen Neugebauer, Anastasios Papadopoulos, 
  Christoph Riplinger, Bernardo de Souza, Georgi L. Stoychev                                                    
                                                                 
  APM, various basis sets, CI-OPT, improved COSX, DLPNO-Multilevel,           
  DOCKER, DRACO, updates on ESD, Fragmentator, GOAT, IRC, LR-CPCM, L-BFGS, MBIS, meta-GGA TD-DFT gradient, ML-optimized integration grids, 
  MM, NACMEs, nearIR, NEB, NEB-TS, NL-DFT gradient (VV10), 2- and 3-layer-ONIOM, interface openCOSMO-RS, QMMM,   
  Crystal-QMMM, RESP, rigid body optimization, SF, symmetry and pop. for TD-DFT, various functionals, SOLVATOR                                   
                                                                         
[Other institutions]                                                     
  V. Asgeirsson          : NEB                                           
  Christoph Bannwarth    : sTDA-DFT, sTD-DFT, PBEh-3c, B97-3c, D3        
  Giovanni Bistoni       : ETS/NOCV, ADLD/ADEX, COVALED                  
  Martin Brehm           : Molecular dynamics                            
  Ronald Cardenas        : ETS/NOCV                                      
  Martina Colucci        : COVALED                                       
  Sebastian Ehlert       : rSCAN, r2SCAN, r2SCAN-3c, D4, dhf basis sets  
  Marvin Friede          : D4 for Fr, Ra, Ac-Lr                          
  Lars Goerigk           : TD-DFT with DH, B97 family of functionals     
  Stefan Grimme          : VdW corrections, initial TS optimization, DFT functionals, gCP, sTDA/sTD-DF 
  Waldemar Hujo          : DFT-NL                                        
  H. Jonsson             : NEB                                           
  Holger Kruse           : gCP                                           
  Marcel Mueller         : wB97X-3c, vDZP basis set                      
  Hagen Neugebauer       : wr2SCAN, Native XTB                           
  Gianluca Regni         : ADLD/ADEX                                     
  Tobias Risthaus        : pre 6.0 range-separated hybrid DFT and stability analysis
  Lukas Wittmann         : regularized MP2, r2SCAN double-hybrids, wr2SCAN        
                                                                         
We gratefully acknowledge several colleagues who have allowed us to      
interface, adapt or use parts of their codes:                            
  Ed Valeev, F. Pavosevic, A. Kumar             : LibInt (2-el integral package), F12 methods 
  Garnet Chan, S. Sharma, J. Yang, R. Olivares  : DMRG                   
  Ulf Ekstrom                                   : XCFun DFT Library      
  Mihaly Kallay                                 : mrcc  (arbitrary order and MRCC methods)
  Frank Weinhold                                : gennbo (NPA and NBO analysis)           
  Simon Mueller                                 : openCOSMO-RS                            
  Christopher J. Cramer and Donald G. Truhlar   : smd solvation model                     
  S Lehtola, MJT Oliveira, MAL Marques          : LibXC Library                           
  Liviu Ungur et al                             : ANISO software                          


 Your calculation uses the libint2 library for the computation of 2-el integrals
 For citations please refer to: http://libint.valeyev.net

 Your ORCA version has been built with support for libXC version: 7.0.0
 For citations please refer to: https://libxc.gitlab.io

 This ORCA versions uses:
   CBLAS   interface :  Fast vector & matrix operations
   LAPACKE interface :  Fast linear algebra routines
   SCALAPACK package :  Parallel linear algebra routines
   Shared memory     :  Shared parallel matrices
   BLAS/LAPACK       :  OpenBLAS 0.3.29  USE64BITINT DYNAMIC_ARCH NO_AFFINITY Haswell SINGLE_THREADED
        Core in use  :  Haswell
   Copyright (c) 2011-2014, The OpenBLAS Project


  ***********************************
  * Starting time: Wed Aug 13 23:48:27 2025
  * Host name:     CHEMLAB02
  * Process ID:    1540997
  * Working dir.:  /home/vivek/mm-project/vivek/B97-D/l/4
  ***********************************



***************************************
The coordinates will be read from file: /home/vivek/mm-project/vivek/xtb-goat/l/L_CONF/4.xyz
***************************************


Your calculation utilizes empirical dispersion correction


Warning: RI is on but no J-basis has been assigned. Assigning Def2/J (nothing to worry about!)
================================================================================

----- Orbital basis set information -----
Your calculation utilizes the basis: 6-31G**
   H-He, Li-Ne : W. J. Hehre, R. Ditchfield and J.A. Pople, J. Chem. Phys. 56, 2257 (1972).
                 Note: He and Ne are unpublished basis sets taken from the Gaussian program.
                 Note: Li and B from J. D. Dill and J. A. Pople, J. Chem. Phys. 62, 2921 (1975).
   Na - Ar     : M. M. Francl, W. J. Pietro, W. J. Hehre, J. S. Binkley, M. S. Gordon, 
                 D. J. DeFrees and J. A. Pople, J. Chem. Phys. 77, 3654 (1982).
   K - Zn      : V. A. Rassolov, J. A. Pople, M. A. Ratner, and T. L. Windus, J. Chem. Phys. 109, 1223 (1998).

----- AuxJ basis set information -----
Your calculation utilizes the auxiliary basis: def2/J
   H-Rn: F. Weigend, Phys. Chem. Chem. Phys. 8, 1057 (2006).
   Fr-Lr: K. Eichkorn, F. Weigend, O. Treutler, R. Ahlrichs; Theor. Chem. Acc. 97, 119 (1997).

================================================================================
                                        WARNINGS
                       Please study these warnings very carefully!
================================================================================


INFO   : The exchange functional is Grimme's B97(-D)
         As described in S. Grimme, J. Comput. Chem. 27, 1787 (2006).
         Note that this functional defaults to a pure GGA. 

INFO   : The correlation functional is Grimme's B97(-D)
         As described in S. Grimme, J. Comput. Chem. 27, 1787 (2006).

================================================================================
                                       INPUT FILE
================================================================================
NAME = 4.inp
|  1> ! B97-D 6-31G** 
|  2> 
|  3> * xyzfile 0 1 /home/vivek/mm-project/vivek/xtb-goat/l/L_CONF/4.xyz
|  4> 
|  5>                          ****END OF INPUT****
================================================================================

                       ****************************
                       * Single Point Calculation *
                       ****************************

---------------------------------
CARTESIAN COORDINATES (ANGSTROEM)
---------------------------------
  C     -8.626746    6.211333   -1.917223
  C     -9.445579    6.991104   -0.898693
  H     -7.097448    7.552274   -2.092835
  H     -6.871802    6.431787   -0.927226
  C     -8.761036    4.706648   -1.616878
  O    -10.723442    7.148743   -1.262274
  H     -9.449602    2.058946   -1.677679
  N     -7.220963    6.569601   -1.871348
  C    -10.110331    4.091618   -2.000584
  H     -7.960323    4.204331   -2.162220
  H     -8.580336    4.558303   -0.549063
  C    -10.253020    3.960545   -3.515073
  H     -9.458581    3.335648   -3.917202
  C    -10.249013    2.717890   -1.345693
  H    -11.208393    3.504650   -3.764340
  H    -10.207296    4.931408   -4.000570
  H    -10.914454    4.735721   -1.630858
  H    -10.199879    2.798364   -0.262088
  H    -11.200586    2.263659   -1.611525
  H     -9.010459    6.428851   -2.917595
  H    -11.214408    7.634433   -0.579299
  O     -9.005900    7.431170    0.131752

----------------------------
CARTESIAN COORDINATES (A.U.)
----------------------------
  NO LB      ZA    FRAG     MASS         X           Y           Z
   0 C     6.0000    0    12.011  -16.302187   11.737718   -3.623027
   1 C     6.0000    0    12.011  -17.849558   13.211271   -1.698284
   2 H     1.0000    0     1.008  -13.412233   14.271729   -3.954885
   3 H     1.0000    0     1.008  -12.985825   12.154316   -1.752202
   4 C     6.0000    0    12.011  -16.555958    8.894276   -3.055457
   5 O     8.0000    0    15.999  -20.264370   13.509166   -2.385352
   6 H     1.0000    0     1.008  -17.857160    3.890844   -3.170354
   7 N     7.0000    0    14.007  -13.645643   12.414746   -3.536336
   8 C     6.0000    0    12.011  -19.105756    7.732038   -3.780556
   9 H     1.0000    0     1.008  -15.042831    7.945033   -4.086004
  10 H     1.0000    0     1.008  -16.214485    8.613945   -1.037578
  11 C     6.0000    0    12.011  -19.375400    7.484345   -6.642525
  12 H     1.0000    0     1.008  -17.874127    6.303461   -7.402438
  13 C     6.0000    0    12.011  -19.367827    5.136067   -2.542992
  14 H     1.0000    0     1.008  -21.180793    6.622829   -7.113571
  15 H     1.0000    0     1.008  -19.288993    9.319011   -7.559982
  16 H     1.0000    0     1.008  -20.625328    8.949216   -3.081876
  17 H     1.0000    0     1.008  -19.274977    5.288142   -0.495274
  18 H     1.0000    0     1.008  -21.166040    4.277696   -3.045340
  19 H     1.0000    0     1.008  -17.027299   12.148768   -5.513455
  20 H     1.0000    0     1.008  -21.192159   14.426987   -1.094716
  21 O     8.0000    0    15.999  -17.018685   14.042876    0.248975

--------------------------------
INTERNAL COORDINATES (ANGSTROEM)
--------------------------------
 C      0   0   0     0.000000000000     0.00000000     0.00000000
 C      1   0   0     1.521819321540     0.00000000     0.00000000
 H      1   2   0     2.041497582217    97.12743059     0.00000000
 H      3   1   2     1.632498363129    65.87624507    89.93036696
 C      1   2   3     1.540233299002   108.85321050   144.43483964
 O      2   1   3     1.337899805600   113.10449471   128.32964233
 H      5   1   2     2.736447612610   164.33228323   104.52969951
 N      3   1   2     1.014868620276    41.75942465   124.79803675
 C      5   1   2     1.531694652975   114.84873567    74.02264626
 H      5   1   2     1.091265939634   106.75388612   195.79256426
 H      5   1   2     1.093109254238   107.97798723   311.38118172
 C      9   5   1     1.526832244439   111.42492375    72.43600841
 H     12   9   5     1.087813168374   110.34930167    59.18584230
 C      7   5   1     1.087877982702    65.92410595   287.79899675
 H     12   9   5     1.087525257226   110.20853651   178.90113637
 H     12   9   5     1.086450355169   111.26035020   298.68385030
 H      9   5   1     1.094613970718   109.04113072   312.72959007
 H     14   7   5     1.087699834783   108.39942100   268.43399132
 H     14   7   5     1.087420647644   108.38603404   151.09491891
 H      1   2   3     1.093294514385   108.76044496   264.29333812
 H      6   2   1     0.971285949938   110.52566046   178.86756907
 O      2   1   3     1.203658230789   124.31616992   308.49149407

---------------------------
INTERNAL COORDINATES (A.U.)
---------------------------
 C      0   0   0     0.000000000000     0.00000000     0.00000000
 C      1   0   0     2.875821743020     0.00000000     0.00000000
 H      1   2   0     3.857871333453    97.12743059     0.00000000
 H      3   1   2     3.084974820389    65.87624507    89.93036696
 C      1   2   3     2.910619117459   108.85321050   144.43483964
 O      2   1   3     2.528264227210   113.10449471   128.32964233
 H      5   1   2     5.171136567655   164.33228323   104.52969951
 N      3   1   2     1.917823754232    41.75942465   124.79803675
 C      5   1   2     2.894483414914   114.84873567    74.02264626
 H      5   1   2     2.062193765184   106.75388612   195.79256426
 H      5   1   2     2.065677124964   107.97798723   311.38118172
 C      9   5   1     2.885294794429   111.42492375    72.43600841
 H     12   9   5     2.055668973100   110.34930167    59.18584230
 C      7   5   1     2.055791454429    65.92410595   287.79899675
 H     12   9   5     2.055124899880   110.20853651   178.90113637
 H     12   9   5     2.053093629371   111.26035020   298.68385030
 H      9   5   1     2.068520627021   109.04113072   312.72959007
 H     14   7   5     2.055454803650   108.39942100   268.43399132
 H     14   7   5     2.054927216418   108.38603404   151.09491891
 H      1   2   3     2.066027215905   108.76044496   264.29333812
 H      6   2   1     1.835464443108   110.52566046   178.86756907
 O      2   1   3     2.274584415032   124.31616992   308.49149407

---------------------
BASIS SET INFORMATION
---------------------
There are 4 groups of distinct atoms

 Group   1 Type C   : 10s4p1d contracted to 3s2p1d pattern {631/31/1}
 Group   2 Type H   : 4s1p contracted to 2s1p pattern {31/1}
 Group   3 Type O   : 10s4p1d contracted to 3s2p1d pattern {631/31/1}
 Group   4 Type N   : 10s4p1d contracted to 3s2p1d pattern {631/31/1}

Atom   0C    basis set group =>   1
Atom   1C    basis set group =>   1
Atom   2H    basis set group =>   2
Atom   3H    basis set group =>   2
Atom   4C    basis set group =>   1
Atom   5O    basis set group =>   3
Atom   6H    basis set group =>   2
Atom   7N    basis set group =>   4
Atom   8C    basis set group =>   1
Atom   9H    basis set group =>   2
Atom  10H    basis set group =>   2
Atom  11C    basis set group =>   1
Atom  12H    basis set group =>   2
Atom  13C    basis set group =>   1
Atom  14H    basis set group =>   2
Atom  15H    basis set group =>   2
Atom  16H    basis set group =>   2
Atom  17H    basis set group =>   2
Atom  18H    basis set group =>   2
Atom  19H    basis set group =>   2
Atom  20H    basis set group =>   2
Atom  21O    basis set group =>   3
---------------------------------
AUXILIARY/J BASIS SET INFORMATION
---------------------------------
There are 4 groups of distinct atoms

 Group   1 Type C   : 12s5p4d2f1g contracted to 6s4p3d1f1g pattern {711111/2111/211/2/1}
 Group   2 Type H   : 5s2p1d contracted to 3s1p1d pattern {311/2/1}
 Group   3 Type O   : 12s5p4d2f1g contracted to 6s4p3d1f1g pattern {711111/2111/211/2/1}
 Group   4 Type N   : 12s5p4d2f1g contracted to 6s4p3d1f1g pattern {711111/2111/211/2/1}

Atom   0C    basis set group =>   1
Atom   1C    basis set group =>   1
Atom   2H    basis set group =>   2
Atom   3H    basis set group =>   2
Atom   4C    basis set group =>   1
Atom   5O    basis set group =>   3
Atom   6H    basis set group =>   2
Atom   7N    basis set group =>   4
Atom   8C    basis set group =>   1
Atom   9H    basis set group =>   2
Atom  10H    basis set group =>   2
Atom  11C    basis set group =>   1
Atom  12H    basis set group =>   2
Atom  13C    basis set group =>   1
Atom  14H    basis set group =>   2
Atom  15H    basis set group =>   2
Atom  16H    basis set group =>   2
Atom  17H    basis set group =>   2
Atom  18H    basis set group =>   2
Atom  19H    basis set group =>   2
Atom  20H    basis set group =>   2
Atom  21O    basis set group =>   3
------------------------------------------------------------------------------
                             ORCA STARTUP CALCULATIONS
                           -- RI-GTO INTEGRALS CHOSEN --
------------------------------------------------------------------------------
------------------------------------------------------------------------------
                   ___                                                        
                  /   \      - P O W E R E D   B Y -                         
                 /     \                                                     
                 |  |  |   _    _      __       _____    __    __             
                 |  |  |  | |  | |    /  \     |  _  \  |  |  /  |          
                  \  \/   | |  | |   /    \    | | | |  |  | /  /          
                 / \  \   | |__| |  /  /\  \   | |_| |  |  |/  /          
                |  |  |   |  __  | /  /__\  \  |    /   |      \           
                |  |  |   | |  | | |   __   |  |    \   |  |\   \          
                \     /   | |  | | |  |  |  |  | |\  \  |  | \   \       
                 \___/    |_|  |_| |__|  |__|  |_| \__\ |__|  \__/        
                                                                              
                      - O R C A' S   B I G   F R I E N D -                    
                                      &                                       
                       - I N T E G R A L  F E E D E R -                       
                                                                              
 v1 FN, 2020, v2 2021, v3 2022-2024                                           
------------------------------------------------------------------------------


----------------------
SHARK INTEGRAL PACKAGE
----------------------

Number of atoms                             ...     22
Number of basis functions                   ...    191
Number of shells                            ...     93
Maximum angular momentum                    ...      2
Integral batch strategy                     ... SHARK/LIBINT Hybrid
RI-J (if used) integral strategy            ... SPLIT-RIJ (Revised 2003 algorithm where possible)
Printlevel                                  ...      1
Contraction scheme used                     ... SEGMENTED contraction
Prescreening option                         ... SCHWARTZ
   Thresh                                   ... 1.000e-10
   Tcut                                     ... 1.000e-11
   Tpresel                                  ... 1.000e-11 
Coulomb Range Separation                    ... NOT USED
Exchange Range Separation                   ... NOT USED
Multipole approximations                    ... NOT USED
Finite Nucleus Model                        ... NOT USED
CABS basis                                  ... NOT available
Auxiliary Coulomb fitting basis             ... AVAILABLE
   # of basis functions in Aux-J            ...    584
   # of shells in Aux-J                     ...    200
   Maximum angular momentum in Aux-J        ...      4
Auxiliary J/K fitting basis                 ... NOT available
Auxiliary Correlation fitting basis         ... NOT available
Auxiliary 'external' fitting basis          ... NOT available

Checking pre-screening integrals            ... done (  0.0 sec) Dimension = 93
   => SHARK Basis and OBASIS are compatible. Storing Pre-screening
Shell pair information
Shell pair cut-off parameter TPreSel        ...   1.0e-11
Total number of shell pairs                 ...      4371
Shell pairs after pre-screening             ...      3874
Total number of primitive shell pairs       ...     20328
Primitive shell pairs kept                  ...     11936
          la=0 lb=0:   1283 shell pairs
          la=1 lb=0:   1448 shell pairs
          la=1 lb=1:    434 shell pairs
          la=2 lb=0:    423 shell pairs
          la=2 lb=1:    244 shell pairs
          la=2 lb=2:     42 shell pairs

Checking whether 4 symmetric matrices of dimension 191 fit in memory
:Max Core in MB      =   4096.00
 MB in use           =      8.56
 MB left             =   4087.44
 MB needed           =      0.56
 Data fit in memory  = YES
Calculating RI/J V-Matrix + Cholesky decomp.... done (  0.0 sec)
Calculating Nuclear repulsion               ... done (  0.0 sec) ENN=    487.646697187855 Eh

Diagonalization of the overlap matrix:
Smallest eigenvalue                        ... 2.995e-03
Time for diagonalization                   ...    0.002 sec
Threshold for overlap eigenvalues          ... 1.000e-07
Number of eigenvalues below threshold      ... 0
Time for construction of square roots      ...    0.001 sec
Total time needed                          ...    0.003 sec

-------------------
DFT GRID GENERATION
-------------------

General Integration Accuracy     IntAcc      ... 4.388
Radial Grid Type                 RadialGrid  ... OptM3 with GC (2021)
Angular Grid (max. ang.)         AngularGrid ... 4 (Lebedev-302)
Angular grid pruning method      GridPruning ... 4 (adaptive)
Weight generation scheme         WeightScheme... mBecke (2022)
Basis function cutoff            BFCut       ... 1.0000e-10
Integration weight cutoff        WCut        ... 1.0000e-14
Partially contracted basis set               ... off
Rotationally invariant grid construction     ... off
Angular grids for H and He will be reduced by one unit

Total number of grid points                  ...    95603
Total number of batches                      ...     1505
Average number of points per batch           ...       63
Average number of grid points per atom       ...     4346
Grids setup in   0.4 sec
Initializing property integral containers    ... done (  0.0 sec)

SHARK setup successfully completed in   0.4 seconds

Maximum memory used throughout the entire STARTUP-calculation: 40.5 MB
-------------------------------------------------------------------------------
                                 ORCA GUESS
                   Start orbitals & Density for SCF / CASSCF
-------------------------------------------------------------------------------

------------
SCF SETTINGS
------------
Hamiltonian:
 Density Functional     Method          .... DFT(GTOs)
 Exchange Functional    Exchange        .... B97(D)
 Correlation Functional Correlation     .... B97(D)
 Gradients option       PostSCFGGA      .... off
 RI-approximation to the Coulomb term is turned on
   Number of AuxJ basis functions       .... 584


General Settings:
 Integral files         IntName         .... 4
 Hartree-Fock type      HFTyp           .... RHF
 Total Charge           Charge          ....    0
 Multiplicity           Mult            ....    1
 Number of Electrons    NEL             ....   72
 Basis Dimension        Dim             ....  191
 Nuclear Repulsion      ENuc            ....    487.6466971879 Eh

Convergence Acceleration:
 AO-DIIS                CNVDIIS         .... on
   Start iteration      DIISMaxIt       ....    12
   Startup error        DIISStart       ....  0.200000
   # of expansion vecs  DIISMaxEq       ....     5
   Bias factor          DIISBfac        ....   1.050
   Max. coefficient     DIISMaxC        ....  10.000
 MO-DIIS                CNVKDIIS        .... off
 Trust-Rad. Augm. Hess. CNVTRAH         .... auto
   Auto Start mean grad. ratio tolernc. ....  1.125000
   Auto Start start iteration           ....    50
   Auto Start num. interpolation iter.  ....    10
   Max. Number of Micro iterations      ....    24
   Max. Number of Macro iterations      .... Maxiter - #DIIS iter
   Number of Davidson start vectors     ....     2
   Converg. threshold    (grad. norm)   ....   5.000e-05
   Grad. Scal. Fac. for Micro threshold ....   0.100
   Minimum threshold for Micro iter.    ....   1.000e-02
   NR start threshold (gradient norm)   ....   1.000e-04
   Initial trust radius                 ....   0.400
   Minimum AH scaling param. (alpha)    ....   1.000
   Maximum AH scaling param. (alpha)    .... 1000.000
   Quad. conv. algorithm                .... NR
   White noise on init. David. guess    .... on
   Maximum white noise                  ....   0.010
   Pseudo random numbers                .... off
   Inactive MOs                         .... canonical
   Orbital update algorithm             .... Taylor
   Preconditioner                       .... Diag
   Full preconditioner red. dimension   ....   250
 SOSCF                 CNVSOSCF           .... on
   Start iteration     SOSCFMaxIt         ....   150
   Startup grad/error  SOSCFStart         ....  0.003300
   Hessian update      SOSCFHessUp        .... L-BFGS
   Autom. constraints  SOSCFAutoConstrain .... off
 Level Shifting         CNVShift        .... on
   Level shift para.    LevelShift      ....    0.2500
   Turn off err/grad.   ShiftErr        ....    0.0010
 Zerner damping         CNVZerner       .... off
 Static damping         CNVDamp         .... on
   Fraction old density DampFac         ....    0.7000
   Max. Damping (<1)    DampMax         ....    0.9800
   Min. Damping (>=0)   DampMin         ....    0.0000
   Turn off err/grad.   DampErr         ....    0.1000

SCF Procedure:
 Maximum # iterations   MaxIter         ....   125
 SCF integral mode      SCFMode         .... Direct
   Integral package                     .... SHARK and LIBINT hybrid scheme
 Reset frequency        DirectResetFreq ....    20
 Integral Threshold     Thresh          ....  1.000e-10 Eh
 Primitive CutOff       TCut            ....  1.000e-11 Eh

Convergence Tolerance:
 Convergence Check Mode ConvCheckMode   .... Total+1el-Energy
 Convergence forced     ConvForced      .... 0
 Energy Change          TolE            ....  1.000e-06 Eh
 1-El. energy change                    ....  1.000e-03 Eh
 Orbital Gradient       TolG            ....  5.000e-05
 Orbital Rotation angle TolX            ....  5.000e-05
 DIIS Error             TolErr          ....  1.000e-06

------------------------------
INITIAL GUESS: MODEL POTENTIAL
------------------------------
Loading Hartree-Fock densities                     ... done
Calculating cut-offs                               ... done
Initializing the effective Hamiltonian             ... done
Setting up the integral package (SHARK)            ... done
Starting the Coulomb interaction                   ... done (   0.1 sec)
Making the grid                                    ... done (   0.1 sec)
Mapping shells                                     ... done
Starting the XC term evaluation                    ... done (   0.1 sec)
  promolecular density results
     # of electrons  =     71.994985132
     EX              =    -56.844684211
     EC              =     -3.117870171
     EX+EC           =    -59.962554382
Transforming the Hamiltonian                       ... done (   0.0 sec)
Diagonalizing the Hamiltonian                      ... done (   0.0 sec)
Back transforming the eigenvectors                 ... done (   0.0 sec)
Now organizing SCF variables                       ... done
                      ------------------
                      INITIAL GUESS DONE (   0.3 sec)
                      ------------------
             **** ENERGY FILE WAS UPDATED (4.en.tmp) ****
Finished Guess after   0.3 sec
Maximum memory used throughout the entire GUESS-calculation: 13.6 MB

-------------------------------------------------------------------------------------------
                                      ORCA LEAN-SCF
                              memory conserving SCF solver
-------------------------------------------------------------------------------------------

----------------------------------------D-I-I-S--------------------------------------------
Iteration    Energy (Eh)           Delta-E    RMSDP     MaxDP     DIISErr   Damp  Time(sec)
-------------------------------------------------------------------------------------------
               ***  Starting incremental Fock matrix formation  ***
    1    -441.0176548884579120     0.00e+00  3.54e-03  1.04e-01  2.58e-01  0.700   0.5
    2    -441.1963144563811170    -1.79e-01  2.34e-03  5.43e-02  9.73e-02  0.700   0.5
                               ***Turning on AO-DIIS***
    3    -441.2524298476133140    -5.61e-02  9.05e-04  1.65e-02  2.52e-02  0.700   0.5
    4    -441.2882337732169731    -3.58e-02  1.19e-03  1.92e-02  1.02e-02  0.000   0.5
    5    -441.3709504526098613    -8.27e-02  4.10e-04  8.30e-03  9.00e-03  0.000   0.5
                              *** Initializing SOSCF ***
---------------------------------------S-O-S-C-F--------------------------------------
Iteration    Energy (Eh)           Delta-E    RMSDP     MaxDP     MaxGrad    Time(sec)
--------------------------------------------------------------------------------------
    6    -441.3718570302029889    -9.07e-04  1.47e-04  2.95e-03  3.07e-03     0.5
               *** Restarting incremental Fock matrix formation ***
    7    -441.3719233537249806    -6.63e-05  1.25e-04  4.16e-03  8.15e-04     0.5
    8    -441.3718920517929405     3.13e-05  6.86e-05  3.07e-03  2.32e-03     0.4
    9    -441.3719330806771382    -4.10e-05  4.36e-05  7.84e-04  2.07e-04     0.4
   10    -441.3719308684183602     2.21e-06  2.51e-05  4.83e-04  2.37e-04     0.5
   11    -441.3719347641976469    -3.90e-06  6.52e-06  2.21e-04  3.23e-05     0.4
   12    -441.3719346754758703     8.87e-08  3.89e-06  1.43e-04  5.31e-05     0.4
                 **** Energy Check signals convergence ****

               *****************************************************
               *                     SUCCESS                       *
               *           SCF CONVERGED AFTER  12 CYCLES          *
               *****************************************************

             **** ENERGY FILE WAS UPDATED (4.en.tmp) ****

----------------
TOTAL SCF ENERGY
----------------

Total Energy       :       -441.37193481113462 Eh          -12010.34094 eV

Components:
Nuclear Repulsion  :        487.64669718785507 Eh           13269.54124 eV
Electronic Energy  :       -929.01863199898969 Eh          -25279.88218 eV
One Electron Energy:      -1567.26070454002320 Eh          -42647.33192 eV
Two Electron Energy:        638.24207254103351 Eh           17367.44974 eV

Virial components:
Potential Energy   :       -880.48526797372722 Eh          -23959.22220 eV
Kinetic Energy     :        439.11333316259260 Eh           11948.88126 eV
Virial Ratio       :          2.00514355060065

DFT components:
N(Alpha)           :       35.999981147996 electrons
N(Beta)            :       35.999981147996 electrons
N(Total)           :       71.999962295992 electrons
E(X)               :      -58.276858722877 Eh       
E(C)               :       -3.114406374503 Eh       
E(XC)              :      -61.391265097380 Eh       

---------------
SCF CONVERGENCE
---------------

  Last Energy change         ...   -8.8722e-08  Tolerance :   1.0000e-06
  Last MAX-Density change    ...    1.4329e-04  Tolerance :   1.0000e-05
  Last RMS-Density change    ...    3.8950e-06  Tolerance :   1.0000e-06
  Last DIIS Error            ...    3.0712e-03  Tolerance :   1.0000e-06
  Last Orbital Gradient      ...    5.3082e-05  Tolerance :   5.0000e-05
  Last Orbital Rotation      ...    5.0692e-05  Tolerance :   5.0000e-05


----------------
ORBITAL ENERGIES
----------------

  NO   OCC          E(Eh)            E(eV) 
   0   2.0000     -18.815611      -511.9988 
   1   2.0000     -18.752727      -510.2876 
   2   2.0000     -13.985149      -380.5552 
   3   2.0000     -10.026479      -272.8344 
   4   2.0000      -9.944420      -270.6014 
   5   2.0000      -9.906880      -269.5799 
   6   2.0000      -9.903895      -269.4987 
   7   2.0000      -9.890816      -269.1428 
   8   2.0000      -9.890548      -269.1355 
   9   2.0000      -1.021222       -27.7889 
  10   2.0000      -0.931342       -25.3431 
  11   2.0000      -0.813847       -22.1459 
  12   2.0000      -0.733709       -19.9652 
  13   2.0000      -0.662875       -18.0377 
  14   2.0000      -0.615423       -16.7465 
  15   2.0000      -0.602234       -16.3876 
  16   2.0000      -0.536890       -14.6095 
  17   2.0000      -0.500839       -13.6285 
  18   2.0000      -0.461533       -12.5590 
  19   2.0000      -0.430409       -11.7120 
  20   2.0000      -0.421169       -11.4606 
  21   2.0000      -0.408184       -11.1073 
  22   2.0000      -0.393182       -10.6990 
  23   2.0000      -0.385356       -10.4861 
  24   2.0000      -0.370272       -10.0756 
  25   2.0000      -0.357650        -9.7322 
  26   2.0000      -0.338271        -9.2048 
  27   2.0000      -0.333705        -9.0806 
  28   2.0000      -0.321164        -8.7393 
  29   2.0000      -0.311274        -8.4702 
  30   2.0000      -0.286988        -7.8093 
  31   2.0000      -0.279853        -7.6152 
  32   2.0000      -0.276965        -7.5366 
  33   2.0000      -0.267144        -7.2694 
  34   2.0000      -0.224856        -6.1186 
  35   2.0000      -0.193920        -5.2768 
  36   0.0000      -0.016867        -0.4590 
  37   0.0000       0.050639         1.3780 
  38   0.0000       0.073789         2.0079 
  39   0.0000       0.079940         2.1753 
  40   0.0000       0.096318         2.6210 
  41   0.0000       0.115412         3.1405 
  42   0.0000       0.122623         3.3367 
  43   0.0000       0.133838         3.6419 
  44   0.0000       0.151627         4.1260 
  45   0.0000       0.155141         4.2216 
  46   0.0000       0.160663         4.3719 
*Only the first 10 virtual orbitals were printed.

                    ********************************
                    * MULLIKEN POPULATION ANALYSIS *
                    ********************************

-----------------------
MULLIKEN ATOMIC CHARGES
-----------------------
   0 C :   -0.047218
   1 C :    0.492401
   2 H :    0.239341
   3 H :    0.246634
   4 C :   -0.176899
   5 O :   -0.450082
   6 H :    0.105025
   7 N :   -0.555523
   8 C :   -0.080908
   9 H :    0.120172
  10 H :    0.100740
  11 C :   -0.319965
  12 H :    0.106237
  13 C :   -0.320542
  14 H :    0.104738
  15 H :    0.105809
  16 H :    0.107386
  17 H :    0.103543
  18 H :    0.102377
  19 H :    0.122541
  20 H :    0.315621
  21 O :   -0.421425
Sum of atomic charges:    0.0000000

--------------------------------
MULLIKEN REDUCED ORBITAL CHARGES
--------------------------------
  0 C s       :     3.199350  s :     3.199350
      pz      :     0.988883  p :     2.790595
      px      :     0.826037
      py      :     0.975676
      dz2     :     0.009171  d :     0.057273
      dxz     :     0.014138
      dyz     :     0.007476
      dx2y2   :     0.014068
      dxy     :     0.012420

  1 C s       :     2.988250  s :     2.988250
      pz      :     0.831204  p :     2.394828
      px      :     0.742150
      py      :     0.821475
      dz2     :     0.028366  d :     0.124521
      dxz     :     0.035673
      dyz     :     0.018968
      dx2y2   :     0.023057
      dxy     :     0.018457

  2 H s       :     0.736779  s :     0.736779
      pz      :     0.006885  p :     0.023880
      px      :     0.005460
      py      :     0.011535

  3 H s       :     0.729446  s :     0.729446
      pz      :     0.011604  p :     0.023920
      px      :     0.006287
      py      :     0.006030

  4 C s       :     3.236769  s :     3.236769
      pz      :     1.028189  p :     2.904270
      px      :     0.978137
      py      :     0.897944
      dz2     :     0.009437  d :     0.035860
      dxz     :     0.005768
      dyz     :     0.004656
      dx2y2   :     0.008448
      dxy     :     0.007551

  5 O s       :     3.825183  s :     3.825183
      pz      :     1.618310  p :     4.602170
      px      :     1.315093
      py      :     1.668767
      dz2     :     0.003679  d :     0.022729
      dxz     :     0.007153
      dyz     :     0.004204
      dx2y2   :     0.003675
      dxy     :     0.004018

  6 H s       :     0.883369  s :     0.883369
      pz      :     0.002949  p :     0.011606
      px      :     0.004626
      py      :     0.004031

  7 N s       :     3.592775  s :     3.592775
      pz      :     1.397265  p :     3.934058
      px      :     1.230437
      py      :     1.306356
      dz2     :     0.010224  d :     0.028691
      dxz     :     0.004464
      dyz     :     0.000313
      dx2y2   :     0.010958
      dxy     :     0.002731

  8 C s       :     3.208300  s :     3.208300
      pz      :     0.923684  p :     2.829141
      px      :     0.961949
      py      :     0.943508
      dz2     :     0.010638  d :     0.043467
      dxz     :     0.007299
      dyz     :     0.008255
      dx2y2   :     0.006911
      dxy     :     0.010363

  9 H s       :     0.868147  s :     0.868147
      pz      :     0.003577  p :     0.011681
      px      :     0.004952
      py      :     0.003152

 10 H s       :     0.887581  s :     0.887581
      pz      :     0.006350  p :     0.011679
      px      :     0.002745
      py      :     0.002584

 11 C s       :     3.246507  s :     3.246507
      pz      :     0.960066  p :     3.043069
      px      :     1.040237
      py      :     1.042767
      dz2     :     0.006915  d :     0.030389
      dxz     :     0.005199
      dyz     :     0.007434
      dx2y2   :     0.004854
      dxy     :     0.005988

 12 H s       :     0.882187  s :     0.882187
      pz      :     0.003078  p :     0.011577
      px      :     0.004612
      py      :     0.003886

 13 C s       :     3.248718  s :     3.248718
      pz      :     1.024955  p :     3.041361
      px      :     1.039316
      py      :     0.977089
      dz2     :     0.010268  d :     0.030463
      dxz     :     0.002014
      dyz     :     0.004273
      dx2y2   :     0.004543
      dxy     :     0.009365

 14 H s       :     0.883651  s :     0.883651
      pz      :     0.002739  p :     0.011610
      px      :     0.005520
      py      :     0.003352

 15 H s       :     0.882452  s :     0.882452
      pz      :     0.003357  p :     0.011739
      px      :     0.002748
      py      :     0.005633

 16 H s       :     0.880701  s :     0.880701
      pz      :     0.002958  p :     0.011913
      px      :     0.004646
      py      :     0.004309

 17 H s       :     0.884861  s :     0.884861
      pz      :     0.006388  p :     0.011596
      px      :     0.002697
      py      :     0.002511

 18 H s       :     0.886035  s :     0.886035
      pz      :     0.002840  p :     0.011588
      px      :     0.005502
      py      :     0.003246

 19 H s       :     0.866372  s :     0.866372
      pz      :     0.006081  p :     0.011086
      px      :     0.002455
      py      :     0.002550

 20 H s       :     0.646503  s :     0.646503
      pz      :     0.014901  p :     0.037876
      px      :     0.010670
      py      :     0.012304

 21 O s       :     3.857585  s :     3.857585
      pz      :     1.383996  p :     4.535806
      px      :     1.695692
      py      :     1.456118
      dz2     :     0.009325  d :     0.028035
      dxz     :     0.006421
      dyz     :     0.007344
      dx2y2   :     0.002308
      dxy     :     0.002637



                     *******************************
                     * LOEWDIN POPULATION ANALYSIS *
                     *******************************

----------------------
LOEWDIN ATOMIC CHARGES
----------------------
   0 C :   -0.050091
   1 C :    0.102512
   2 H :    0.124958
   3 H :    0.127892
   4 C :   -0.111388
   5 O :   -0.138085
   6 H :    0.067314
   7 N :   -0.244093
   8 C :   -0.075455
   9 H :    0.077743
  10 H :    0.068568
  11 C :   -0.196136
  12 H :    0.067752
  13 C :   -0.195437
  14 H :    0.069414
  15 H :    0.066662
  16 H :    0.068204
  17 H :    0.067291
  18 H :    0.067894
  19 H :    0.078961
  20 H :    0.180520
  21 O :   -0.225000

-------------------------------
LOEWDIN REDUCED ORBITAL CHARGES
-------------------------------
  0 C s       :     2.880739  s :     2.880739
      pz      :     1.050829  p :     3.039478
      px      :     0.952669
      py      :     1.035979
      dz2     :     0.020937  d :     0.129874
      dxz     :     0.031720
      dyz     :     0.016447
      dx2y2   :     0.033671
      dxy     :     0.027099

  1 C s       :     2.858730  s :     2.858730
      pz      :     0.988486  p :     2.741731
      px      :     0.901784
      py      :     0.851461
      dz2     :     0.065596  d :     0.297027
      dxz     :     0.090243
      dyz     :     0.043906
      dx2y2   :     0.056375
      dxy     :     0.040907

  2 H s       :     0.796350  s :     0.796350
      pz      :     0.018847  p :     0.078692
      px      :     0.015601
      py      :     0.044244

  3 H s       :     0.792680  s :     0.792680
      pz      :     0.044039  p :     0.079428
      px      :     0.019321
      py      :     0.016068

  4 C s       :     2.907614  s :     2.907614
      pz      :     1.076196  p :     3.123296
      px      :     1.053517
      py      :     0.993583
      dz2     :     0.020740  d :     0.080479
      dxz     :     0.012064
      dyz     :     0.009717
      dx2y2   :     0.020835
      dxy     :     0.017123

  5 O s       :     3.472630  s :     3.472630
      pz      :     1.614417  p :     4.614308
      px      :     1.356525
      py      :     1.643366
      dz2     :     0.006595  d :     0.051147
      dxz     :     0.016281
      dyz     :     0.006419
      dx2y2   :     0.011958
      dxy     :     0.009894

  6 H s       :     0.893014  s :     0.893014
      pz      :     0.008762  p :     0.039672
      px      :     0.016836
      py      :     0.014074

  7 N s       :     3.198984  s :     3.198984
      pz      :     1.394724  p :     3.987013
      px      :     1.270936
      py      :     1.321353
      dz2     :     0.017558  d :     0.058097
      dxz     :     0.009546
      dyz     :     0.000993
      dx2y2   :     0.022610
      dxy     :     0.007390

  8 C s       :     2.879060  s :     2.879060
      pz      :     1.025704  p :     3.096654
      px      :     1.039147
      py      :     1.031803
      dz2     :     0.026442  d :     0.099740
      dxz     :     0.015014
      dyz     :     0.018519
      dx2y2   :     0.017161
      dxy     :     0.022604

  9 H s       :     0.881843  s :     0.881843
      pz      :     0.011630  p :     0.040414
      px      :     0.018071
      py      :     0.010714

 10 H s       :     0.891687  s :     0.891687
      pz      :     0.024651  p :     0.039745
      px      :     0.007890
      py      :     0.007205

 11 C s       :     2.917382  s :     2.917382
      pz      :     1.037949  p :     3.214436
      px      :     1.089230
      py      :     1.087256
      dz2     :     0.017463  d :     0.064318
      dxz     :     0.010415
      dyz     :     0.014913
      dx2y2   :     0.009615
      dxy     :     0.011911

 12 H s       :     0.892565  s :     0.892565
      pz      :     0.009790  p :     0.039683
      px      :     0.016733
      py      :     0.013161

 13 C s       :     2.918956  s :     2.918956
      pz      :     1.075950  p :     3.212008
      px      :     1.088736
      py      :     1.047322
      dz2     :     0.020816  d :     0.064473
      dxz     :     0.003869
      dyz     :     0.010082
      dx2y2   :     0.010794
      dxy     :     0.018912

 14 H s       :     0.891027  s :     0.891027
      pz      :     0.008272  p :     0.039559
      px      :     0.020922
      py      :     0.010365

 15 H s       :     0.893187  s :     0.893187
      pz      :     0.011123  p :     0.040151
      px      :     0.007363
      py      :     0.021666

 16 H s       :     0.891560  s :     0.891560
      pz      :     0.009031  p :     0.040236
      px      :     0.017063
      py      :     0.014142

 17 H s       :     0.893227  s :     0.893227
      pz      :     0.025040  p :     0.039482
      px      :     0.007192
      py      :     0.007250

 18 H s       :     0.892543  s :     0.892543
      pz      :     0.008155  p :     0.039564
      px      :     0.020812
      py      :     0.010597

 19 H s       :     0.880829  s :     0.880829
      pz      :     0.024225  p :     0.040210
      px      :     0.007852
      py      :     0.008133

 20 H s       :     0.703916  s :     0.703916
      pz      :     0.047479  p :     0.115564
      px      :     0.031046
      py      :     0.037040

 21 O s       :     3.554509  s :     3.554509
      pz      :     1.464476  p :     4.612527
      px      :     1.691302
      py      :     1.456749
      dz2     :     0.018909  d :     0.057964
      dxz     :     0.014851
      dyz     :     0.015333
      dx2y2   :     0.004264
      dxy     :     0.004607



                      *****************************
                      * MAYER POPULATION ANALYSIS *
                      *****************************

  NA   - Mulliken gross atomic population
  ZA   - Total nuclear charge
  QA   - Mulliken gross atomic charge
  VA   - Mayer's total valence
  BVA  - Mayer's bonded valence
  FA   - Mayer's free valence

  ATOM       NA         ZA         QA         VA         BVA        FA
  0 C      6.0472     6.0000    -0.0472     3.8671     3.8671    -0.0000
  1 C      5.5076     6.0000     0.4924     3.9447     3.9447     0.0000
  2 H      0.7607     1.0000     0.2393     0.9215     0.9215     0.0000
  3 H      0.7534     1.0000     0.2466     0.9302     0.9302     0.0000
  4 C      6.1769     6.0000    -0.1769     3.8546     3.8546    -0.0000
  5 O      8.4501     8.0000    -0.4501     2.0430     2.0430     0.0000
  6 H      0.8950     1.0000     0.1050     0.9576     0.9576     0.0000
  7 N      7.5555     7.0000    -0.5555     2.9084     2.9084     0.0000
  8 C      6.0809     6.0000    -0.0809     3.9194     3.9194    -0.0000
  9 H      0.8798     1.0000     0.1202     0.9621     0.9621    -0.0000
 10 H      0.8993     1.0000     0.1007     0.9593     0.9593    -0.0000
 11 C      6.3200     6.0000    -0.3200     3.8850     3.8850    -0.0000
 12 H      0.8938     1.0000     0.1062     0.9584     0.9584    -0.0000
 13 C      6.3205     6.0000    -0.3205     3.8861     3.8861    -0.0000
 14 H      0.8953     1.0000     0.1047     0.9571     0.9571    -0.0000
 15 H      0.8942     1.0000     0.1058     0.9582     0.9582     0.0000
 16 H      0.8926     1.0000     0.1074     0.9609     0.9609    -0.0000
 17 H      0.8965     1.0000     0.1035     0.9568     0.9568    -0.0000
 18 H      0.8976     1.0000     0.1024     0.9570     0.9570     0.0000
 19 H      0.8775     1.0000     0.1225     0.9541     0.9541     0.0000
 20 H      0.6844     1.0000     0.3156     0.9198     0.9198     0.0000
 21 O      8.4214     8.0000    -0.4214     2.1119     2.1119    -0.0000

  Mayer bond orders larger than 0.100000
B(  0-C ,  1-C ) :   0.8953 B(  0-C ,  4-C ) :   0.9734 B(  0-C ,  7-N ) :   1.0521 
B(  0-C , 19-H ) :   0.9212 B(  1-C ,  5-O ) :   1.0765 B(  1-C , 21-O ) :   1.9223 
B(  2-H ,  7-N ) :   0.9093 B(  3-H ,  7-N ) :   0.8978 B(  4-C ,  8-C ) :   0.9931 
B(  4-C ,  9-H ) :   0.9333 B(  4-C , 10-H ) :   0.9396 B(  5-O , 20-H ) :   0.8510 
B(  6-H , 13-C ) :   0.9591 B(  8-C , 11-C ) :   1.0101 B(  8-C , 13-C ) :   1.0041 
B(  8-C , 16-H ) :   0.9313 B( 11-C , 12-H ) :   0.9582 B( 11-C , 14-H ) :   0.9596 
B( 11-C , 15-H ) :   0.9558 B( 13-C , 17-H ) :   0.9596 B( 13-C , 18-H ) :   0.9596 


-------
TIMINGS
-------

Total SCF time: 0 days 0 hours 0 min 6 sec 

Total time                  ....       6.104 sec
Sum of individual times     ....       5.698 sec  ( 93.4%)

SCF preparation             ....       0.026 sec  (  0.4%)
Fock matrix formation       ....       5.614 sec  ( 92.0%)
  Startup                   ....       0.001 sec  (  0.0% of F)
  Split-RI-J                ....       2.066 sec  ( 36.8% of F)
  XC integration            ....       3.937 sec  ( 70.1% of F)
    XC Preparation          ....       0.000 sec  (  0.0% of XC)
    Basis function eval.    ....       1.393 sec  ( 35.4% of XC)
    Density eval.           ....       0.885 sec  ( 22.5% of XC)
    XC-Functional eval.     ....       0.711 sec  ( 18.1% of XC)
    XC-Potential eval.      ....       0.845 sec  ( 21.5% of XC)
Diagonalization             ....       0.000 sec  (  0.0%)
Density matrix formation    ....       0.004 sec  (  0.1%)
Total Energy calculation    ....       0.001 sec  (  0.0%)
Population analysis         ....       0.003 sec  (  0.0%)
Orbital Transformation      ....       0.006 sec  (  0.1%)
Orbital Orthonormalization  ....       0.000 sec  (  0.0%)
DIIS solution               ....       0.028 sec  (  0.5%)
SOSCF solution              ....       0.016 sec  (  0.3%)
Finished LeanSCF after   6.1 sec

Maximum memory used throughout the entire LEANSCF-calculation: 21.2 MB



-------------------------------------------------------------------------------
                          DFT DISPERSION CORRECTION                            
-------------------------------------------------------------------------------
Active option DFTDOPT                   ...         2   
Final C6-coefficient scaling factor     ...     1.250
Final VDW-radii scaling factor          ...     1.100
Damping factor alpha                    ...    20.000
-------------------------   ----------------
Dispersion correction           -0.033450712
-------------------------   ----------------


-------------------------   --------------------
FINAL SINGLE POINT ENERGY      -441.405385522660
-------------------------   --------------------


------------------------------------------------------------------------------
                              ORCA PROPERTY CALCULATIONS
------------------------------------------------------------------------------

GBWName                                 ... 4.gbw
Number of atoms                         ...     22
Number of basis functions               ...    191
Max core memory                         ...   4096 MB

Electric properties:
Dipole moment                           ... YES
Quadrupole moment                       ...  NO
Static polarizability (Dipole/Dipole)   ...  NO
Static polarizability (Dipole/Quad.)    ...  NO
Static polarizability (Quad./Quad.)     ...  NO
Static polarizability (Velocity)        ...  NO
Static hyperpolarizability              ...  NO

Atomic electric properties:
Dipole moment                           ...  NO
Quadrupole moment                       ...  NO
Static polarizability                   ...  NO

Choice of electric origin               ... Center of mass
Position of electric origin             ...   -17.735909    10.526159    -2.971331

General magnetic properties:
Magnetizability                         ...  NO

EPR properties:
g-Tensor (aka g-matrix)                 ...  NO
Zero-Field splitting spin-orbit         ...  NO
Zero-field splitting spin-spin          ...  NO
Hyperfine couplings                     ...  NO (   0 nuclei)
Quadrupole couplings                    ...  NO (   0 nuclei)
Contact density                         ...  NO (   0 nuclei)

NMR properties:
Chemical shifts                         ...  NO (   0 nuclei)
Spin-rotation constants                 ...  NO (   0 nuclei)
Spin-spin couplings                     ...  NO (   0 nuclei,    0 pairs)

Choice of magnetic origin               ... GIAO
Position of magnetic origin             ...     0.000000     0.000000     0.000000

Properties with geometric perturbations:
SCF Hessian                             ...  NO
IR spectrum                             ...  NO
VCD spectrum                            ...  NO
X-ray spectroscopy properties:
SCF XES/XAS/RIXS spectra                ...  NO

SCF SOC stabilization energy            ...  NO
Diagonal Born-Oppenheimer correction    ...  NO

-------------
DIPOLE MOMENT
-------------

Method             : SCF
Type of density    : Electron Density
Multiplicity       :   1
Irrep              :   0
Energy             :  -441.3719348111346221 Eh
Basis              : AO
                                X                 Y                 Z
Electronic contribution:      0.713196680      11.269919919       5.151438443
Nuclear contribution   :     -1.280860645     -11.177604712      -5.274252789
                        -----------------------------------------
Total Dipole Moment    :     -0.567663965       0.092315207      -0.122814345
                        -----------------------------------------
Magnitude (a.u.)       :      0.588088291
Magnitude (Debye)      :      1.494801642



--------------------
Rotational spectrum 
--------------------
 
Rotational constants in cm-1:             0.076727             0.033400             0.029821 
Rotational constants in MHz :          2300.209499          1001.297356           894.003057 

Dipole components along the rotational axes: 
x,y,z [a.u.] :    -0.125108    -0.499869    -0.283420 
x,y,z [Debye]:    -0.317999    -1.270566    -0.720396 

 

Dipole moment calculation done in   0.0 sec 

Maximum memory used throughout the entire PROP-calculation: 12.0 MB

--------------------------------
SUGGESTED CITATIONS FOR THIS RUN
--------------------------------

Below you find a list of papers that are relevant to this ORCA run
We neither can nor want to force you to cite these papers, but we appreciate if you do
You receive ORCA, which is the product of decades of hard work by many enthusiastic individuals, for free
The only thing we kindly ask in return is that you cite our papers,
We deeply appreciate it, if you show your appreciation for ORCA by not just citing the generic ORCA reference.

Please note that relegating all ORCA citations to the supporting information does *not* help us.
SI sections are not indexed - citations you put there will not count into any citation statistics
But we need these citations in order to attract the funding resources that allow us to do what we are doing

Therefore, if you are a happy ORCA user, please consider citing a few of the papers listed below in the main body of your paper

In addition to the list printed below, the program has created the file 4.bibtex that contains the list in bibtex format
You can import this file easily into all common literature databanks and citation aid programs


List of essential papers. We consider these as the minimum necessary citations

  1. Neese, F.
     Software update: the ORCA program system, version 6.0
     WIRES Comput. Molec. Sci. 2025 15(1), e70019
     doi.org/10.1002/wcms.7019

List of papers to cite with high priority. The work reported in these papers was absolutely
necessary for this run to complete.
Our perspective: the developers of density functionals and basis sets usually get cited in chemistry papers
Good! But without the algorithms to do something with them, the functionals or basis sets would not do anything.
Hence, in our opinion, the algorithm design and method developments papers are equally worthy of getting cited

  1. Neese, F.
     An improvement of the resolution of the identity approximation for the formation of the Coulomb matrix
     J. Comp. Chem. 2003 24(14), 1740-1747
     doi.org/10.1002/jcc.10318
  2. Grimme, S.
     Semiempirical GGA-type density functional constructed with a long-range dispersion correction
     J.Comput.Chem. 2006 27(15), 1787-1799
     doi.org/10.1002/jcc.20495
  3. Neese, F.
     The SHARK Integral Generation and Digestion System
     J. Comp. Chem. 2022 44(3), 381
     doi.org/10.1002/jcc.26942

List of suggested additional citations. These are papers that are important in the 'surrounding' of 
of this run, or papers that preceded the highly important papers. If you like your results we are grateful for a citation.

  1. Neese, F.
     The ORCA program system
     WIRES Comput. Molec. Sci. 2012 2(1), 73-78
     doi.org/10.1002/wcms.81
  2. Neese, F.
     Software update: the ORCA program system, version 4.0
     WIRES Comput. Molec. Sci. 2018 8(1), 1-6
     doi.org/10.1002/wcms.1327
  3. Neese, F.; Wennmohs, F.; Becker, U.; Riplinger, C.
     The ORCA quantum chemistry program package
     J. Chem. Phys. 2020 152(22), 224108
     doi.org/10.1063/5.0004608
  4. Neese, F.
     Software update: The ORCA program system—Version 5.0
     WIRES Comput. Molec. Sci. 2022 12(1), e1606
     doi.org/10.1002/wcms.1606

List of optional additional citations

  1. Neese, F.
     Approximate second-order SCF convergence for spin unrestricted wavefunctions
     Chem. Phys. Lett. 2000 325(1-3), 93-98
     doi.org/10.1016/s0009-2614(00)00662-x

Timings for individual modules:

Sum of individual times          ...        6.910 sec (=   0.115 min)
Startup calculation              ...        0.460 sec (=   0.008 min)   6.7 %
SCF iterations                   ...        6.419 sec (=   0.107 min)  92.9 %
Property calculations            ...        0.031 sec (=   0.001 min)   0.5 %
                             ****ORCA TERMINATED NORMALLY****
TOTAL RUN TIME: 0 days 0 hours 0 minutes 6 seconds 950 msec
