
                                 *****************
                                 * O   R   C   A *
                                 *****************

                                            #,                                       
                                            ###                                      
                                            ####                                     
                                            #####                                    
                                            ######                                   
                                           ########,                                 
                                     ,,################,,,,,                         
                               ,,#################################,,                 
                          ,,##########################################,,             
                       ,#########################################, ''#####,          
                    ,#############################################,,   '####,        
                  ,##################################################,,,,####,       
                ,###########''''           ''''###############################       
              ,#####''   ,,,,##########,,,,          '''####'''          '####       
            ,##' ,,,,###########################,,,                        '##       
           ' ,,###''''                  '''############,,,                           
         ,,##''                                '''############,,,,        ,,,,,,###''
      ,#''                                            '''#######################'''  
     '                                                          ''''####''''         
             ,#######,   #######,   ,#######,      ##                                
            ,#'     '#,  ##    ##  ,#'     '#,    #''#        ,####,    ,#,          
            ##       ##  ##   ,#'  ##            #'  '#       #'       ,# #          
            ##       ##  #######   ##           ,######,      #####,      #          
            '#,     ,#'  ##    ##  '#,     ,#' ,#      #,     #,   #      #          
             '#######'   ##     ##  '#######'  #'      '#     '####' #    #          



                #########################################################
                #                        -***-                          #
                #          Department of theory and spectroscopy        #
                #                                                       #
                #                      Frank Neese                      #
                #                                                       #
                #     Directorship, Architecture, Infrastructure        #
                #                    SHARK, DRIVERS                     #
                #        Core code/Algorithms in most modules           #
                #                                                       #
                #        Max Planck Institute fuer Kohlenforschung      #
                #                Kaiser Wilhelm Platz 1                 #
                #                 D-45470 Muelheim/Ruhr                 #
                #                      Germany                          #
                #                                                       #
                #                  All rights reserved                  #
                #                        -***-                          #
                #########################################################


                         Program Version 6.1.0  -  RELEASE   -
                                (GIT: $679e74b$)
                          ($2025-06-10 18:02:51 +0200$)


 With contributions from (in alphabetic order):
[Max-Planck-Institut fuer Kohlenforschung]                               
  Daniel Aravena         : Magnetic Suceptibility                        
  Michael Atanasov       : Ab Initio Ligand Field Theory (pilot matlab implementation)
  Alexander A. Auer      : GIAO ZORA, VPT2 properties, NMR spectrum      
  Ute Becker             : All parallelization in ORCA, NUMFREQ, NUMCALC 
  Giovanni Bistoni       : ED, misc. LED, open-shell LED, HFLD           
  Dmytro Bykov           : pre 5.0 version of the SCF Hessian            
  Marcos Casanova-Páez   : Triplet and SCS-CIS(D). UHF-(DLPNO)-IP/EA/STEOM-CCSD. UHF-CVS-IP/STEOM-CCSD   
  Vijay G. Chilkuri      : MRCI spin determinant printing, contributions to CSF-ICE 
  Pauline Colinet        : FMM embedding                                 
  Dipayan Datta          : RHF DLPNO-CCSD density                        
  Achintya Kumar Dutta   : EOM-CC, STEOM-CC                              
  Nicolas Foglia         : Exact transition moments, OPA infrastructure, MCD improvements    
  Dmitry Ganyushin       : Spin-Orbit,Spin-Spin,Magnetic field MRCI      
  Miquel Garcia-Rates    : C-PCM and meta-GGA Hessian, CCSD/C-PCM, Gaussian charge scheme 
  Tiago L. C. Gouveia    : GS-ROHF, GS-ROCIS                             
  Yang Guo               : DLPNO-NEVPT2, F12-NEVPT2, CIM, IAO-localization        
  Andreas Hansen         : Spin unrestricted coupled pair/coupled cluster methods 
  Ingolf Harden          : AUTO-CI MPn and infrastructure                
  Benjamin Helmich-Paris : MC-RPA, TRAH-(SCF,CASSCF), AVAS, COSX integrals, SCF dyn. polar., MC-PDFT, srDFT 
  Lee Huntington         : MR-EOM, pCC                                   
  Robert Izsak           : Overlap fitted RIJCOSX, COSX-SCS-MP3, EOM     
  Riya Kayal             : Wick's Theorem for AUTO-CI, AUTO-CI UHF-CCSDT 
  Emily Kempfer          : AUTO-CI RHF CISDT and CCSDT, approximate NEVPT4
  Christian Kollmar      : KDIIS, OOCD, Brueckner-CCSD(T), CCSD density, CASPT2, CASPT2-K, improved NEVPT2 
  Axel Koslowski         : Symmetry handling                             
  Simone Kossmann        : meta-GGA functionals, TD-DFT gradient, OOMP2, (MP2 Hessian; deprecated post 5.0) 
  Lucas Lang             : DCDCAS, Hyperfine gauge corrections, ICE-SOC+SSC
  Marvin Lechner         : AUTO-CI (C++ implementation), FIC-MRCC        
  Spencer Leger          : CASSCF response                               
  Dagmar Lenk            : GEPOL surface, SMD, ORCA-2-JSON               
  Dimitrios Liakos       : Extrapolation schemes; Compound Job, Property file
  Dimitrios Manganas     : Further ROCIS development; embedding schemes. LFT, Crystal Embedding 
  Dimitrios Pantazis     : SARC Basis sets                               
  Anastasios Papadopoulos: AUTO-CI, single reference methods and gradients 
  Taras Petrenko         : pre 6.0 DFT Hessian and TD-DFT gradient,  ECA, NRVS 
  Petra Pikulova         : Analytic Raman intensities                    
  Peter Pinski           : DLPNO-MP2, DLPNO-MP2 Gradient                 
  Shashank Vittal Rao    : ES-AILFT, MagRelax                            
  Christoph Reimann      : Effective Core Potentials                     
  Marius Retegan         : Local ZFS, SOC                                
  Christoph Riplinger    : Optimizer, TS searches, QM/MM, DLPNO-CCSD(T), (RO)-DLPNO pert. Triples 
  Michael Roemelt        : Original ROCIS implementation, recursive CI coupling coefficients
  Masaaki Saitow         : Open-shell DLPNO-CCSD energy and density      
  Barbara Sandhoefer     : DKH picture change effects                    
  Yorick L. A. Schmerwitz: GMF and freeze-and-release deltaSCF, NEB S-IDPP initial path                    
  Kantharuban Sivalingam : CASSCF convergence/infrastructure, NEVPT2, NEVPT3, NEVPT4(SD), FIC-MRCI and CEPA variants
  Bernardo de Souza      : ESD, SOC TD-DFT                               
  Georgi L. Stoychev     : AutoAux, RI-MP2 NMR, DLPNO-MP2 response, X2C  
  Van Anh Tran           : RI-MP2 g-tensors                              
  Willem Van den Heuvel  : Paramagnetic NMR                              
  Zikuan Wang            : NOTCH, Electric field optimization            
  Frank Wennmohs         : Technical directorship and infrastructure     
  Hang Xu                : AUTO-CI-Response properties                   
                                                                         
[FACCTs GmbH]                                                            
  Markus Bursch, Nicolas Foglia, Miquel Garcia-Rates, Ingolf Harden, Hagen Neugebauer, Anastasios Papadopoulos, 
  Christoph Riplinger, Bernardo de Souza, Georgi L. Stoychev                                                    
                                                                 
  APM, various basis sets, CI-OPT, improved COSX, DLPNO-Multilevel,           
  DOCKER, DRACO, updates on ESD, Fragmentator, GOAT, IRC, LR-CPCM, L-BFGS, MBIS, meta-GGA TD-DFT gradient, ML-optimized integration grids, 
  MM, NACMEs, nearIR, NEB, NEB-TS, NL-DFT gradient (VV10), 2- and 3-layer-ONIOM, interface openCOSMO-RS, QMMM,   
  Crystal-QMMM, RESP, rigid body optimization, SF, symmetry and pop. for TD-DFT, various functionals, SOLVATOR                                   
                                                                         
[Other institutions]                                                     
  V. Asgeirsson          : NEB                                           
  Christoph Bannwarth    : sTDA-DFT, sTD-DFT, PBEh-3c, B97-3c, D3        
  Giovanni Bistoni       : ETS/NOCV, ADLD/ADEX, COVALED                  
  Martin Brehm           : Molecular dynamics                            
  Ronald Cardenas        : ETS/NOCV                                      
  Martina Colucci        : COVALED                                       
  Sebastian Ehlert       : rSCAN, r2SCAN, r2SCAN-3c, D4, dhf basis sets  
  Marvin Friede          : D4 for Fr, Ra, Ac-Lr                          
  Lars Goerigk           : TD-DFT with DH, B97 family of functionals     
  Stefan Grimme          : VdW corrections, initial TS optimization, DFT functionals, gCP, sTDA/sTD-DF 
  Waldemar Hujo          : DFT-NL                                        
  H. Jonsson             : NEB                                           
  Holger Kruse           : gCP                                           
  Marcel Mueller         : wB97X-3c, vDZP basis set                      
  Hagen Neugebauer       : wr2SCAN, Native XTB                           
  Gianluca Regni         : ADLD/ADEX                                     
  Tobias Risthaus        : pre 6.0 range-separated hybrid DFT and stability analysis
  Lukas Wittmann         : regularized MP2, r2SCAN double-hybrids, wr2SCAN        
                                                                         
We gratefully acknowledge several colleagues who have allowed us to      
interface, adapt or use parts of their codes:                            
  Ed Valeev, F. Pavosevic, A. Kumar             : LibInt (2-el integral package), F12 methods 
  Garnet Chan, S. Sharma, J. Yang, R. Olivares  : DMRG                   
  Ulf Ekstrom                                   : XCFun DFT Library      
  Mihaly Kallay                                 : mrcc  (arbitrary order and MRCC methods)
  Frank Weinhold                                : gennbo (NPA and NBO analysis)           
  Simon Mueller                                 : openCOSMO-RS                            
  Christopher J. Cramer and Donald G. Truhlar   : smd solvation model                     
  S Lehtola, MJT Oliveira, MAL Marques          : LibXC Library                           
  Liviu Ungur et al                             : ANISO software                          


 Your calculation uses the libint2 library for the computation of 2-el integrals
 For citations please refer to: http://libint.valeyev.net

 Your ORCA version has been built with support for libXC version: 7.0.0
 For citations please refer to: https://libxc.gitlab.io

 This ORCA versions uses:
   CBLAS   interface :  Fast vector & matrix operations
   LAPACKE interface :  Fast linear algebra routines
   SCALAPACK package :  Parallel linear algebra routines
   Shared memory     :  Shared parallel matrices
   BLAS/LAPACK       :  OpenBLAS 0.3.29  USE64BITINT DYNAMIC_ARCH NO_AFFINITY Haswell SINGLE_THREADED
        Core in use  :  Haswell
   Copyright (c) 2011-2014, The OpenBLAS Project


  ***********************************
  * Starting time: Thu Aug 14 00:53:12 2025
  * Host name:     CHEMLAB02
  * Process ID:    1542759
  * Working dir.:  /home/vivek/mm-project/vivek/MP2/e/3
  ***********************************



***************************************
The coordinates will be read from file: /home/vivek/mm-project/vivek/xtb-goat/e/E_CONF/3.xyz
***************************************


================================================================================

----- Orbital basis set information -----
Your calculation utilizes the basis: 6-31G**
   H-He, Li-Ne : W. J. Hehre, R. Ditchfield and J.A. Pople, J. Chem. Phys. 56, 2257 (1972).
                 Note: He and Ne are unpublished basis sets taken from the Gaussian program.
                 Note: Li and B from J. D. Dill and J. A. Pople, J. Chem. Phys. 62, 2921 (1975).
   Na - Ar     : M. M. Francl, W. J. Pietro, W. J. Hehre, J. S. Binkley, M. S. Gordon, 
                 D. J. DeFrees and J. A. Pople, J. Chem. Phys. 77, 3654 (1982).
   K - Zn      : V. A. Rassolov, J. A. Pople, M. A. Ratner, and T. L. Windus, J. Chem. Phys. 109, 1223 (1998).

================================================================================
                                        WARNINGS
                       Please study these warnings very carefully!
================================================================================


WARNING: No MP2 level density has been requested!
         To calculate MP2 level properties use
         %mp2 Density relaxed end
         or
         %mp2 Density unrelaxed end

WARNING: Post HF methods need fully converged wavefunctions
  ===> : Setting SCFConvForced true
         You can overwrite this default with %scf ConvForced false 


================================================================================
                                       INPUT FILE
================================================================================
NAME = 3.inp
|  1> ! MP2 6-31G** 
|  2> 
|  3> * xyzfile 0 1 /home/vivek/mm-project/vivek/xtb-goat/e/E_CONF/3.xyz
|  4> 
|  5>                          ****END OF INPUT****
================================================================================

                       ****************************
                       * Single Point Calculation *
                       ****************************

---------------------------------
CARTESIAN COORDINATES (ANGSTROEM)
---------------------------------
  C     -3.310775    0.271821   -0.336060
  C     -2.226538    0.743697   -1.277860
  H     -1.479252    1.542741    2.348828
  H     -1.602851   -0.000682    1.820180
  O     -4.194760    1.237391   -0.067164
  C     -0.848440    0.393989   -0.718896
  H     -2.368917    0.230588   -2.230826
  H     -2.330908    1.817047   -1.426975
  C     -0.570910    1.206557    0.554769
  H     -0.829335   -0.670578   -0.476709
  H     -0.075141    0.605752   -1.457010
  C      0.815200    0.854197    1.086377
  O      1.023789    0.330926    2.147710
  N     -1.618897    0.970480    1.523161
  H     -4.867158    0.913057    0.551699
  O      1.791235    1.196922    0.238964
  H     -0.568055    2.273795    0.300449
  O     -3.425237   -0.850500    0.079338
  H      2.657976    0.952124    0.601922

----------------------------
CARTESIAN COORDINATES (A.U.)
----------------------------
  NO LB      ZA    FRAG     MASS         X           Y           Z
   0 C     6.0000    0    12.011   -6.256459    0.513667   -0.635062
   1 C     6.0000    0    12.011   -4.207548    1.405384   -2.414805
   2 H     1.0000    0     1.008   -2.795382    2.915357    4.438641
   3 H     1.0000    0     1.008   -3.028949   -0.001289    3.439643
   4 O     8.0000    0    15.999   -7.926947    2.338330   -0.126922
   5 C     6.0000    0    12.011   -1.603318    0.744531   -1.358516
   6 H     1.0000    0     1.008   -4.476604    0.435748   -4.215650
   7 H     1.0000    0     1.008   -4.404777    3.433720   -2.696591
   8 C     6.0000    0    12.011   -1.078864    2.280062    1.048361
   9 H     1.0000    0     1.008   -1.567216   -1.267208   -0.900849
  10 H     1.0000    0     1.008   -0.141996    1.144706   -2.753350
  11 C     6.0000    0    12.011    1.540506    1.614198    2.052954
  12 O     8.0000    0    15.999    1.934680    0.625360    4.058584
  13 N     7.0000    0    14.007   -3.059273    1.833942    2.878357
  14 H     1.0000    0     1.008   -9.197596    1.725428    1.042560
  15 O     8.0000    0    15.999    3.384943    2.261854    0.451577
  16 H     1.0000    0     1.008   -1.073469    4.296849    0.567766
  17 O     8.0000    0    15.999   -6.472759   -1.607212    0.149928
  18 H     1.0000    0     1.008    5.022846    1.799253    1.137468

--------------------------------
INTERNAL COORDINATES (ANGSTROEM)
--------------------------------
 C      0   0   0     0.000000000000     0.00000000     0.00000000
 C      1   0   0     1.511695657746     0.00000000     0.00000000
 H      1   2   0     3.489747496481    89.38204493     0.00000000
 H      3   1   2     1.636122675867    50.81775855   259.55392996
 O      1   2   3     1.336435212018   111.97717769    85.37247751
 C      2   1   3     1.527708263980   110.33998531    44.58032420
 H      2   1   3     1.091648709212   107.67373301   163.71698317
 H      2   1   3     1.088672238450   108.92498833   282.19871029
 C      6   2   1     1.536069783497   110.19828595   292.86179203
 H      6   2   1     1.091935055881   108.66939951    52.46283677
 H      6   2   1     1.089791988510   110.35282057   172.05165547
 C      9   6   2     1.525800554702   109.32128384   180.65503322
 O     12   9   6     1.201561427037   124.47353898   243.58264317
 N      3   1   2     1.014252548111    25.30393951   304.49485989
 H      5   1   2     0.969692491465   110.20704877   181.13597700
 O     12   9   6     1.337240146198   112.52509207    63.80773648
 H      9   6   2     1.097125130241   108.83505060   297.97094781
 O      1   2   3     1.202190189639   125.09763740   261.71305378
 H     16  12   9     0.971032435023   110.48820961   180.54879511

---------------------------
INTERNAL COORDINATES (A.U.)
---------------------------
 C      0   0   0     0.000000000000     0.00000000     0.00000000
 C      1   0   0     2.856690790977     0.00000000     0.00000000
 H      1   2   0     6.594667044886    89.38204493     0.00000000
 H      3   1   2     3.091823778887    50.81775855   259.55392996
 O      1   2   3     2.525496546443   111.97717769    85.37247751
 C      2   1   3     2.886950231450   110.33998531    44.58032420
 H      2   1   3     2.062917094860   107.67373301   163.71698317
 H      2   1   3     2.057292380274   108.92498833   282.19871029
 C      6   2   1     2.902751213401   110.19828595   292.86179203
 H      6   2   1     2.063458211642   108.66939951    52.46283677
 H      6   2   1     2.059408401225   110.35282057   172.05165547
 C      9   6   2     2.883345183372   109.32128384   180.65503322
 O     12   9   6     2.270622030183   124.47353898   243.58264317
 N      3   1   2     1.916659546562    25.30393951   304.49485989
 H      5   1   2     1.832453242989   110.20704877   181.13597700
 O     12   9   6     2.527017651598   112.52509207    63.80773648
 H      9   6   2     2.073266030798   108.83505060   297.97094781
 O      1   2   3     2.271810219304   125.09763740   261.71305378
 H     16  12   9     1.834985369348   110.48820961   180.54879511

---------------------
BASIS SET INFORMATION
---------------------
There are 4 groups of distinct atoms

 Group   1 Type C   : 10s4p1d contracted to 3s2p1d pattern {631/31/1}
 Group   2 Type H   : 4s1p contracted to 2s1p pattern {31/1}
 Group   3 Type O   : 10s4p1d contracted to 3s2p1d pattern {631/31/1}
 Group   4 Type N   : 10s4p1d contracted to 3s2p1d pattern {631/31/1}

Atom   0C    basis set group =>   1
Atom   1C    basis set group =>   1
Atom   2H    basis set group =>   2
Atom   3H    basis set group =>   2
Atom   4O    basis set group =>   3
Atom   5C    basis set group =>   1
Atom   6H    basis set group =>   2
Atom   7H    basis set group =>   2
Atom   8C    basis set group =>   1
Atom   9H    basis set group =>   2
Atom  10H    basis set group =>   2
Atom  11C    basis set group =>   1
Atom  12O    basis set group =>   3
Atom  13N    basis set group =>   4
Atom  14H    basis set group =>   2
Atom  15O    basis set group =>   3
Atom  16H    basis set group =>   2
Atom  17O    basis set group =>   3
Atom  18H    basis set group =>   2
------------------------------------------------------------------------------
                             ORCA STARTUP CALCULATIONS
------------------------------------------------------------------------------
------------------------------------------------------------------------------
                   ___                                                        
                  /   \      - P O W E R E D   B Y -                         
                 /     \                                                     
                 |  |  |   _    _      __       _____    __    __             
                 |  |  |  | |  | |    /  \     |  _  \  |  |  /  |          
                  \  \/   | |  | |   /    \    | | | |  |  | /  /          
                 / \  \   | |__| |  /  /\  \   | |_| |  |  |/  /          
                |  |  |   |  __  | /  /__\  \  |    /   |      \           
                |  |  |   | |  | | |   __   |  |    \   |  |\   \          
                \     /   | |  | | |  |  |  |  | |\  \  |  | \   \       
                 \___/    |_|  |_| |__|  |__|  |_| \__\ |__|  \__/        
                                                                              
                      - O R C A' S   B I G   F R I E N D -                    
                                      &                                       
                       - I N T E G R A L  F E E D E R -                       
                                                                              
 v1 FN, 2020, v2 2021, v3 2022-2024                                           
------------------------------------------------------------------------------


----------------------
SHARK INTEGRAL PACKAGE
----------------------

Number of atoms                             ...     19
Number of basis functions                   ...    185
Number of shells                            ...     87
Maximum angular momentum                    ...      2
Integral batch strategy                     ... SHARK/LIBINT Hybrid
RI-J (if used) integral strategy            ... SPLIT-RIJ (Revised 2003 algorithm where possible)
Printlevel                                  ...      1
Contraction scheme used                     ... SEGMENTED contraction
Prescreening option                         ... SCHWARTZ
   Thresh                                   ... 1.000e-10
   Tcut                                     ... 1.000e-11
   Tpresel                                  ... 1.000e-11 
Coulomb Range Separation                    ... NOT USED
Exchange Range Separation                   ... NOT USED
Multipole approximations                    ... NOT USED
Finite Nucleus Model                        ... NOT USED
CABS basis                                  ... NOT available
Auxiliary Coulomb fitting basis             ... NOT available
Auxiliary J/K fitting basis                 ... NOT available
Auxiliary Correlation fitting basis         ... NOT available
Auxiliary 'external' fitting basis          ... NOT available

Checking pre-screening integrals            ... done (  0.0 sec) Dimension = 87
   => SHARK Basis and OBASIS are compatible. Storing Pre-screening
Shell pair information
Shell pair cut-off parameter TPreSel        ...   1.0e-11
Total number of shell pairs                 ...      3828
Shell pairs after pre-screening             ...      3384
Total number of primitive shell pairs       ...     19347
Primitive shell pairs kept                  ...     11046
          la=0 lb=0:   1033 shell pairs
          la=1 lb=0:   1230 shell pairs
          la=1 lb=1:    392 shell pairs
          la=2 lb=0:    420 shell pairs
          la=2 lb=1:    261 shell pairs
          la=2 lb=2:     48 shell pairs

Checking whether 4 symmetric matrices of dimension 185 fit in memory
:Max Core in MB      =   4096.00
 MB in use           =      5.82
 MB left             =   4090.18
 MB needed           =      0.53
 Data fit in memory  = YES
Calculating Nuclear repulsion               ... done (  0.0 sec) ENN=    563.011994518693 Eh

Diagonalization of the overlap matrix:
Smallest eigenvalue                        ... 2.837e-03
Time for diagonalization                   ...    0.002 sec
Threshold for overlap eigenvalues          ... 1.000e-07
Number of eigenvalues below threshold      ... 0
Time for construction of square roots      ...    0.001 sec
Total time needed                          ...    0.003 sec

-------------------
DFT GRID GENERATION
-------------------

General Integration Accuracy     IntAcc      ... 4.388
Radial Grid Type                 RadialGrid  ... OptM3 with GC (2021)
Angular Grid (max. ang.)         AngularGrid ... 4 (Lebedev-302)
Angular grid pruning method      GridPruning ... 4 (adaptive)
Weight generation scheme         WeightScheme... mBecke (2022)
Basis function cutoff            BFCut       ... 1.0000e-10
Integration weight cutoff        WCut        ... 1.0000e-14
Partially contracted basis set               ... off
Rotationally invariant grid construction     ... off
Angular grids for H and He will be reduced by one unit

Total number of grid points                  ...    89143
Total number of batches                      ...     1403
Average number of points per batch           ...       63
Average number of grid points per atom       ...     4692
Grids setup in   0.3 sec
Initializing property integral containers    ... done (  0.0 sec)

SHARK setup successfully completed in   0.4 seconds

Maximum memory used throughout the entire STARTUP-calculation: 35.3 MB
-------------------------------------------------------------------------------
                                 ORCA GUESS
                   Start orbitals & Density for SCF / CASSCF
-------------------------------------------------------------------------------

------------
SCF SETTINGS
------------
Hamiltonian:
 Ab initio Hamiltonian  Method          .... Hartree-Fock(GTOs)


General Settings:
 Integral files         IntName         .... 3
 Hartree-Fock type      HFTyp           .... RHF
 Total Charge           Charge          ....    0
 Multiplicity           Mult            ....    1
 Number of Electrons    NEL             ....   78
 Basis Dimension        Dim             ....  185
 Nuclear Repulsion      ENuc            ....    563.0119945187 Eh

Convergence Acceleration:
 AO-DIIS                CNVDIIS         .... on
   Start iteration      DIISMaxIt       ....    12
   Startup error        DIISStart       ....  0.200000
   # of expansion vecs  DIISMaxEq       ....     5
   Bias factor          DIISBfac        ....   1.050
   Max. coefficient     DIISMaxC        ....  10.000
 MO-DIIS                CNVKDIIS        .... off
 Trust-Rad. Augm. Hess. CNVTRAH         .... auto
   Auto Start mean grad. ratio tolernc. ....  1.125000
   Auto Start start iteration           ....    50
   Auto Start num. interpolation iter.  ....    10
   Max. Number of Micro iterations      ....    24
   Max. Number of Macro iterations      .... Maxiter - #DIIS iter
   Number of Davidson start vectors     ....     2
   Converg. threshold    (grad. norm)   ....   5.000e-05
   Grad. Scal. Fac. for Micro threshold ....   0.100
   Minimum threshold for Micro iter.    ....   1.000e-02
   NR start threshold (gradient norm)   ....   1.000e-04
   Initial trust radius                 ....   0.400
   Minimum AH scaling param. (alpha)    ....   1.000
   Maximum AH scaling param. (alpha)    .... 1000.000
   Quad. conv. algorithm                .... NR
   White noise on init. David. guess    .... on
   Maximum white noise                  ....   0.010
   Pseudo random numbers                .... off
   Inactive MOs                         .... canonical
   Orbital update algorithm             .... Taylor
   Preconditioner                       .... Diag
   Full preconditioner red. dimension   ....   250
 SOSCF                 CNVSOSCF           .... on
   Start iteration     SOSCFMaxIt         ....   150
   Startup grad/error  SOSCFStart         ....  0.003300
   Hessian update      SOSCFHessUp        .... L-BFGS
   Autom. constraints  SOSCFAutoConstrain .... off
 Level Shifting         CNVShift        .... on
   Level shift para.    LevelShift      ....    0.2500
   Turn off err/grad.   ShiftErr        ....    0.0010
 Zerner damping         CNVZerner       .... off
 Static damping         CNVDamp         .... on
   Fraction old density DampFac         ....    0.7000
   Max. Damping (<1)    DampMax         ....    0.9800
   Min. Damping (>=0)   DampMin         ....    0.0000
   Turn off err/grad.   DampErr         ....    0.1000

SCF Procedure:
 Maximum # iterations   MaxIter         ....   125
 SCF integral mode      SCFMode         .... Direct
   Integral package                     .... SHARK and LIBINT hybrid scheme
 Reset frequency        DirectResetFreq ....    20
 Integral Threshold     Thresh          ....  1.000e-10 Eh
 Primitive CutOff       TCut            ....  1.000e-11 Eh

Convergence Tolerance:
 Convergence Check Mode ConvCheckMode   .... Total+1el-Energy
 Convergence forced     ConvForced      .... 1
 Energy Change          TolE            ....  1.000e-06 Eh
 1-El. energy change                    ....  1.000e-03 Eh
 Orbital Gradient       TolG            ....  5.000e-05
 Orbital Rotation angle TolX            ....  5.000e-05
 DIIS Error             TolErr          ....  1.000e-06

------------------------------
INITIAL GUESS: MODEL POTENTIAL
------------------------------
Loading Hartree-Fock densities                     ... done
Calculating cut-offs                               ... done
Initializing the effective Hamiltonian             ... done
Setting up the integral package (SHARK)            ... done
Starting the Coulomb interaction                   ... done (   0.1 sec)
Making the grid                                    ... done (   0.1 sec)
Mapping shells                                     ... done
Starting the XC term evaluation                    ... done (   0.0 sec)
Transforming the Hamiltonian                       ... done (   0.0 sec)
Diagonalizing the Hamiltonian                      ... done (   0.0 sec)
Back transforming the eigenvectors                 ... done (   0.0 sec)
Now organizing SCF variables                       ... done
                      ------------------
                      INITIAL GUESS DONE (   0.2 sec)
                      ------------------
             **** ENERGY FILE WAS UPDATED (3.en.tmp) ****
Finished Guess after   0.2 sec
Maximum memory used throughout the entire GUESS-calculation: 11.1 MB

-------------------------------------------------------------------------------------------
                                      ORCA LEAN-SCF
                              memory conserving SCF solver
-------------------------------------------------------------------------------------------

----------------------------------------D-I-I-S--------------------------------------------
Iteration    Energy (Eh)           Delta-E    RMSDP     MaxDP     DIISErr   Damp  Time(sec)
-------------------------------------------------------------------------------------------
               ***  Starting incremental Fock matrix formation  ***
    1    -548.1149928947298804     0.00e+00  2.56e-03  6.16e-02  2.51e-01  0.700   1.7
    2    -548.2686648024322267    -1.54e-01  1.87e-03  4.39e-02  1.54e-01  0.700   1.6
                               ***Turning on AO-DIIS***
    3    -548.3574205067103549    -8.88e-02  1.00e-03  2.09e-02  8.75e-02  0.700   1.6
    4    -548.4133752952947134    -5.60e-02  2.31e-03  4.52e-02  6.11e-02  0.000   1.5
    5    -548.5386171597434668    -1.25e-01  3.07e-04  6.49e-03  6.20e-03  0.000   1.6
    6    -548.5392548071239389    -6.38e-04  1.54e-04  3.40e-03  3.31e-03  0.000   1.5
                              *** Initializing SOSCF ***
---------------------------------------S-O-S-C-F--------------------------------------
Iteration    Energy (Eh)           Delta-E    RMSDP     MaxDP     MaxGrad    Time(sec)
--------------------------------------------------------------------------------------
    7    -548.5394045425758804    -1.50e-04  9.22e-05  2.32e-03  1.93e-03     1.4
               *** Restarting incremental Fock matrix formation ***
    8    -548.5394535715021220    -4.90e-05  4.50e-05  1.03e-03  7.34e-04     1.7
    9    -548.5394647982676588    -1.12e-05  4.95e-05  1.28e-03  4.90e-04     1.3
   10    -548.5394689827154480    -4.18e-06  8.89e-06  2.84e-04  1.77e-04     1.3
   11    -548.5394693320412216    -3.49e-07  3.19e-06  9.18e-05  3.76e-05     1.2
                 **** Energy Check signals convergence ****

               *****************************************************
               *                     SUCCESS                       *
               *           SCF CONVERGED AFTER  11 CYCLES          *
               *****************************************************

             **** ENERGY FILE WAS UPDATED (3.en.tmp) ****

----------------
TOTAL SCF ENERGY
----------------

Total Energy       :       -548.53946938160914 Eh          -14926.51781 eV

Components:
Nuclear Repulsion  :        563.01199451869309 Eh           15320.33524 eV
Electronic Energy  :      -1111.55146390030222 Eh          -30246.85305 eV
One Electron Energy:      -1869.74243368205225 Eh          -50878.27822 eV
Two Electron Energy:        758.19096978175003 Eh           20631.42517 eV

Virial components:
Potential Energy   :      -1096.35387608085466 Eh          -29833.30566 eV
Kinetic Energy     :        547.81440669924552 Eh           14906.78785 eV
Virial Ratio       :          2.00132355533826

---------------
SCF CONVERGENCE
---------------

  Last Energy change         ...    3.4933e-07  Tolerance :   1.0000e-06
  Last MAX-Density change    ...    9.1800e-05  Tolerance :   1.0000e-05
  Last RMS-Density change    ...    3.1935e-06  Tolerance :   1.0000e-06
  Last DIIS Error            ...    1.9339e-03  Tolerance :   1.0000e-06
  Last Orbital Gradient      ...    3.7559e-05  Tolerance :   5.0000e-05
  Last Orbital Rotation      ...    3.1872e-05  Tolerance :   5.0000e-05


----------------
ORBITAL ENERGIES
----------------

  NO   OCC          E(Eh)            E(eV) 
   0   2.0000     -20.623486      -561.1936 
   1   2.0000     -20.600608      -560.5711 
   2   2.0000     -20.559293      -559.4468 
   3   2.0000     -20.534223      -558.7646 
   4   2.0000     -15.553223      -423.2247 
   5   2.0000     -11.387638      -309.8734 
   6   2.0000     -11.377456      -309.5963 
   7   2.0000     -11.282635      -307.0161 
   8   2.0000     -11.244348      -305.9743 
   9   2.0000     -11.243066      -305.9394 
  10   2.0000      -1.474282       -40.1173 
  11   2.0000      -1.453197       -39.5435 
  12   2.0000      -1.368251       -37.2320 
  13   2.0000      -1.346866       -36.6501 
  14   2.0000      -1.208231       -32.8776 
  15   2.0000      -1.075555       -29.2673 
  16   2.0000      -0.986780       -26.8517 
  17   2.0000      -0.891536       -24.2599 
  18   2.0000      -0.816604       -22.2209 
  19   2.0000      -0.790426       -21.5086 
  20   2.0000      -0.716489       -19.4966 
  21   2.0000      -0.708426       -19.2773 
  22   2.0000      -0.696437       -18.9510 
  23   2.0000      -0.687300       -18.7024 
  24   2.0000      -0.663834       -18.0638 
  25   2.0000      -0.637896       -17.3580 
  26   2.0000      -0.627986       -17.0884 
  27   2.0000      -0.609611       -16.5884 
  28   2.0000      -0.593139       -16.1401 
  29   2.0000      -0.569292       -15.4912 
  30   2.0000      -0.563156       -15.3243 
  31   2.0000      -0.529317       -14.4035 
  32   2.0000      -0.519831       -14.1453 
  33   2.0000      -0.501135       -13.6366 
  34   2.0000      -0.481808       -13.1107 
  35   2.0000      -0.462584       -12.5876 
  36   2.0000      -0.455982       -12.4079 
  37   2.0000      -0.433564       -11.7979 
  38   2.0000      -0.404752       -11.0139 
  39   0.0000       0.178376         4.8539 
  40   0.0000       0.199968         5.4414 
  41   0.0000       0.217954         5.9308 
  42   0.0000       0.226641         6.1672 
  43   0.0000       0.245042         6.6679 
  44   0.0000       0.262910         7.1542 
  45   0.0000       0.271254         7.3812 
  46   0.0000       0.308501         8.3947 
  47   0.0000       0.321280         8.7425 
  48   0.0000       0.323106         8.7922 
  49   0.0000       0.336777         9.1642 
*Only the first 10 virtual orbitals were printed.

                    ********************************
                    * MULLIKEN POPULATION ANALYSIS *
                    ********************************

-----------------------
MULLIKEN ATOMIC CHARGES
-----------------------
   0 C :    0.856354
   1 C :   -0.302960
   2 H :    0.286677
   3 H :    0.301373
   4 O :   -0.638724
   5 C :   -0.253399
   6 H :    0.163556
   7 H :    0.155685
   8 C :   -0.022716
   9 H :    0.157559
  10 H :    0.155312
  11 C :    0.783287
  12 O :   -0.578085
  13 N :   -0.712160
  14 H :    0.365180
  15 O :   -0.637092
  16 H :    0.159682
  17 O :   -0.614194
  18 H :    0.374665
Sum of atomic charges:   -0.0000000

--------------------------------
MULLIKEN REDUCED ORBITAL CHARGES
--------------------------------
  0 C s       :     2.936974  s :     2.936974
      pz      :     0.683762  p :     2.057328
      px      :     0.716256
      py      :     0.657310
      dz2     :     0.017355  d :     0.149345
      dxz     :     0.014396
      dyz     :     0.034188
      dx2y2   :     0.032163
      dxy     :     0.051244

  1 C s       :     3.258461  s :     3.258461
      pz      :     1.006437  p :     2.998392
      px      :     0.910772
      py      :     1.081183
      dz2     :     0.007542  d :     0.046108
      dxz     :     0.011916
      dyz     :     0.007522
      dx2y2   :     0.013440
      dxy     :     0.005688

  2 H s       :     0.687233  s :     0.687233
      pz      :     0.011762  p :     0.026090
      px      :     0.006263
      py      :     0.008065

  3 H s       :     0.672864  s :     0.672864
      pz      :     0.004595  p :     0.025763
      px      :     0.006048
      py      :     0.015120

  4 O s       :     3.838351  s :     3.838351
      pz      :     1.667986  p :     4.774770
      px      :     1.455888
      py      :     1.650897
      dz2     :     0.002586  d :     0.025602
      dxz     :     0.003779
      dyz     :     0.005510
      dx2y2   :     0.003698
      dxy     :     0.010030

  5 C s       :     3.247819  s :     3.247819
      pz      :     0.950795  p :     2.957375
      px      :     0.970613
      py      :     1.035967
      dz2     :     0.007773  d :     0.048206
      dxz     :     0.013014
      dyz     :     0.008698
      dx2y2   :     0.014808
      dxy     :     0.003913

  6 H s       :     0.823465  s :     0.823465
      pz      :     0.007553  p :     0.012979
      px      :     0.001997
      py      :     0.003429

  7 H s       :     0.831724  s :     0.831724
      pz      :     0.001681  p :     0.012592
      px      :     0.001661
      py      :     0.009250

  8 C s       :     3.198800  s :     3.198800
      pz      :     0.886289  p :     2.753243
      px      :     0.795853
      py      :     1.071100
      dz2     :     0.014672  d :     0.070673
      dxz     :     0.017761
      dyz     :     0.010622
      dx2y2   :     0.022017
      dxy     :     0.005601

  9 H s       :     0.829884  s :     0.829884
      pz      :     0.001936  p :     0.012557
      px      :     0.001574
      py      :     0.009047

 10 H s       :     0.832070  s :     0.832070
      pz      :     0.005022  p :     0.012618
      px      :     0.005627
      py      :     0.001969

 11 C s       :     2.945847  s :     2.945847
      pz      :     0.692108  p :     2.124567
      px      :     0.785598
      py      :     0.646861
      dz2     :     0.034660  d :     0.146298
      dxz     :     0.051834
      dyz     :     0.024122
      dx2y2   :     0.016439
      dxy     :     0.019243

 12 O s       :     3.872268  s :     3.872268
      pz      :     1.402934  p :     4.672839
      px      :     1.821265
      py      :     1.448639
      dz2     :     0.012230  d :     0.032978
      dxz     :     0.005944
      dyz     :     0.010281
      dx2y2   :     0.002869
      dxy     :     0.001653

 13 N s       :     3.607585  s :     3.607585
      pz      :     1.240304  p :     4.070664
      px      :     1.590520
      py      :     1.239840
      dz2     :     0.005279  d :     0.033910
      dxz     :     0.008046
      dyz     :     0.009103
      dx2y2   :     0.009124
      dxy     :     0.002358

 14 H s       :     0.593255  s :     0.593255
      pz      :     0.016220  p :     0.041565
      px      :     0.016849
      py      :     0.008497

 15 O s       :     3.836434  s :     3.836434
      pz      :     1.682850  p :     4.775411
      px      :     1.279664
      py      :     1.812897
      dz2     :     0.004161  d :     0.025247
      dxz     :     0.010866
      dyz     :     0.004112
      dx2y2   :     0.002442
      dxy     :     0.003665

 16 H s       :     0.828199  s :     0.828199
      pz      :     0.001867  p :     0.012119
      px      :     0.001299
      py      :     0.008953

 17 O s       :     3.875169  s :     3.875169
      pz      :     1.566899  p :     4.706689
      px      :     1.732129
      py      :     1.407660
      dz2     :     0.004934  d :     0.032336
      dxz     :     0.000977
      dyz     :     0.010217
      dx2y2   :     0.008383
      dxy     :     0.007825

 18 H s       :     0.583808  s :     0.583808
      pz      :     0.009339  p :     0.041526
      px      :     0.022646
      py      :     0.009541



                     *******************************
                     * LOEWDIN POPULATION ANALYSIS *
                     *******************************

----------------------
LOEWDIN ATOMIC CHARGES
----------------------
   0 C :    0.252123
   1 C :   -0.125785
   2 H :    0.135090
   3 H :    0.142589
   4 O :   -0.205913
   5 C :   -0.102306
   6 H :    0.091196
   7 H :    0.080564
   8 C :   -0.026173
   9 H :    0.079825
  10 H :    0.078249
  11 C :    0.226632
  12 O :   -0.303641
  13 N :   -0.261582
  14 H :    0.197355
  15 O :   -0.210345
  16 H :    0.081724
  17 O :   -0.332366
  18 H :    0.202763

-------------------------------
LOEWDIN REDUCED ORBITAL CHARGES
-------------------------------
  0 C s       :     2.839541  s :     2.839541
      pz      :     0.785222  p :     2.586401
      px      :     0.846500
      py      :     0.954679
      dz2     :     0.037698  d :     0.321935
      dxz     :     0.028465
      dyz     :     0.071521
      dx2y2   :     0.071127
      dxy     :     0.113124

  1 C s       :     2.894589  s :     2.894589
      pz      :     1.050964  p :     3.144152
      px      :     1.016270
      py      :     1.076918
      dz2     :     0.013466  d :     0.087044
      dxz     :     0.024120
      dyz     :     0.012820
      dx2y2   :     0.025287
      dxy     :     0.011351

  2 H s       :     0.782804  s :     0.782804
      pz      :     0.036472  p :     0.082106
      px      :     0.021581
      py      :     0.024052

  3 H s       :     0.774374  s :     0.774374
      pz      :     0.016054  p :     0.083037
      px      :     0.020986
      py      :     0.045998

  4 O s       :     3.458091  s :     3.458091
      pz      :     1.627032  p :     4.699729
      px      :     1.431469
      py      :     1.641228
      dz2     :     0.004717  d :     0.048093
      dxz     :     0.009784
      dyz     :     0.007383
      dx2y2   :     0.008457
      dxy     :     0.017753

  5 C s       :     2.890598  s :     2.890598
      pz      :     1.023052  p :     3.120778
      px      :     1.028441
      py      :     1.069285
      dz2     :     0.015414  d :     0.090931
      dxz     :     0.024693
      dyz     :     0.016587
      dx2y2   :     0.026461
      dxy     :     0.007777

  6 H s       :     0.868024  s :     0.868024
      pz      :     0.022505  p :     0.040780
      px      :     0.007207
      py      :     0.011068

  7 H s       :     0.878400  s :     0.878400
      pz      :     0.006955  p :     0.041036
      px      :     0.006463
      py      :     0.027617

  8 C s       :     2.869225  s :     2.869225
      pz      :     0.991361  p :     3.014672
      px      :     0.955685
      py      :     1.067626
      dz2     :     0.030318  d :     0.142275
      dxz     :     0.036738
      dyz     :     0.020553
      dx2y2   :     0.043487
      dxy     :     0.011179

  9 H s       :     0.878942  s :     0.878942
      pz      :     0.007397  p :     0.041233
      px      :     0.006553
      py      :     0.027284

 10 H s       :     0.880822  s :     0.880822
      pz      :     0.016168  p :     0.040928
      px      :     0.017276
      py      :     0.007484

 11 C s       :     2.847553  s :     2.847553
      pz      :     0.926456  p :     2.608245
      px      :     0.951615
      py      :     0.730175
      dz2     :     0.075014  d :     0.317570
      dxz     :     0.116228
      dyz     :     0.052375
      dx2y2   :     0.032232
      dxy     :     0.041720

 12 O s       :     3.547439  s :     3.547439
      pz      :     1.468856  p :     4.698601
      px      :     1.785397
      py      :     1.444348
      dz2     :     0.020624  d :     0.057602
      dxz     :     0.012035
      dyz     :     0.018148
      dx2y2   :     0.003642
      dxy     :     0.003151

 13 N s       :     3.182559  s :     3.182559
      pz      :     1.235218  p :     4.018665
      px      :     1.571494
      py      :     1.211953
      dz2     :     0.010263  d :     0.060358
      dxz     :     0.014160
      dyz     :     0.016413
      dx2y2   :     0.015297
      dxy     :     0.004224

 14 H s       :     0.682408  s :     0.682408
      pz      :     0.046178  p :     0.120236
      px      :     0.046745
      py      :     0.027314

 15 O s       :     3.457132  s :     3.457132
      pz      :     1.667778  p :     4.705280
      px      :     1.269518
      py      :     1.767984
      dz2     :     0.007615  d :     0.047934
      dxz     :     0.019266
      dyz     :     0.005179
      dx2y2   :     0.009205
      dxy     :     0.006669

 16 H s       :     0.878751  s :     0.878751
      pz      :     0.007595  p :     0.039525
      px      :     0.005301
      py      :     0.026630

 17 O s       :     3.545020  s :     3.545020
      pz      :     1.553094  p :     4.730784
      px      :     1.693780
      py      :     1.483911
      dz2     :     0.007283  d :     0.056561
      dxz     :     0.001812
      dyz     :     0.016982
      dx2y2   :     0.018267
      dxy     :     0.012216

 18 H s       :     0.676871  s :     0.676871
      pz      :     0.029605  p :     0.120366
      px      :     0.061250
      py      :     0.029511



                      *****************************
                      * MAYER POPULATION ANALYSIS *
                      *****************************

  NA   - Mulliken gross atomic population
  ZA   - Total nuclear charge
  QA   - Mulliken gross atomic charge
  VA   - Mayer's total valence
  BVA  - Mayer's bonded valence
  FA   - Mayer's free valence

  ATOM       NA         ZA         QA         VA         BVA        FA
  0 C      5.1436     6.0000     0.8564     3.6756     3.6756    -0.0000
  1 C      6.3030     6.0000    -0.3030     3.7723     3.7723    -0.0000
  2 H      0.7133     1.0000     0.2867     0.9033     0.9033    -0.0000
  3 H      0.6986     1.0000     0.3014     0.8961     0.8961     0.0000
  4 O      8.6387     8.0000    -0.6387     1.8405     1.8405    -0.0000
  5 C      6.2534     6.0000    -0.2534     3.7813     3.7813    -0.0000
  6 H      0.8364     1.0000     0.1636     0.9450     0.9450    -0.0000
  7 H      0.8443     1.0000     0.1557     0.9447     0.9447    -0.0000
  8 C      6.0227     6.0000    -0.0227     3.7408     3.7408     0.0000
  9 H      0.8424     1.0000     0.1576     0.9476     0.9476    -0.0000
 10 H      0.8447     1.0000     0.1553     0.9470     0.9470    -0.0000
 11 C      5.2167     6.0000     0.7833     3.7089     3.7089     0.0000
 12 O      8.5781     8.0000    -0.5781     1.9117     1.9117    -0.0000
 13 N      7.7122     7.0000    -0.7122     2.7631     2.7631    -0.0000
 14 H      0.6348     1.0000     0.3652     0.8778     0.8778    -0.0000
 15 O      8.6371     8.0000    -0.6371     1.8175     1.8175     0.0000
 16 H      0.8403     1.0000     0.1597     0.9396     0.9396     0.0000
 17 O      8.6142     8.0000    -0.6142     1.8574     1.8574     0.0000
 18 H      0.6253     1.0000     0.3747     0.8699     0.8699     0.0000

  Mayer bond orders larger than 0.100000
B(  0-C ,  1-C ) :   0.9329 B(  0-C ,  4-O ) :   0.9783 B(  0-C , 17-O ) :   1.7890 
B(  1-C ,  5-C ) :   0.9667 B(  1-C ,  6-H ) :   0.9629 B(  1-C ,  7-H ) :   0.9630 
B(  2-H , 13-N ) :   0.9057 B(  3-H , 13-N ) :   0.8865 B(  4-O , 14-H ) :   0.8459 
B(  5-C ,  8-C ) :   0.9540 B(  5-C ,  9-H ) :   0.9566 B(  5-C , 10-H ) :   0.9661 
B(  8-C , 11-C ) :   0.9257 B(  8-C , 13-N ) :   0.9846 B(  8-C , 16-H ) :   0.9537 
B( 11-C , 12-O ) :   1.8467 B( 11-C , 15-O ) :   0.9664 B( 15-O , 18-H ) :   0.8384 


-------
TIMINGS
-------

Total SCF time: 0 days 0 hours 0 min 17 sec 

Total time                  ....      17.492 sec
Sum of individual times     ....      16.409 sec  ( 93.8%)

SCF preparation             ....       0.015 sec  (  0.1%)
Fock matrix formation       ....      16.344 sec  ( 93.4%)
  Startup                   ....       0.001 sec  (  0.0% of F)
  Coulomb+Exchange Fock     ....      17.417 sec  (106.6% of F)
Diagonalization             ....       0.000 sec  (  0.0%)
Density matrix formation    ....       0.004 sec  (  0.0%)
Total Energy calculation    ....       0.001 sec  (  0.0%)
Population analysis         ....       0.003 sec  (  0.0%)
Orbital Transformation      ....       0.005 sec  (  0.0%)
Orbital Orthonormalization  ....       0.000 sec  (  0.0%)
DIIS solution               ....       0.028 sec  (  0.2%)
SOSCF solution              ....       0.010 sec  (  0.1%)
Finished LeanSCF after  17.5 sec

Maximum memory used throughout the entire LEANSCF-calculation: 14.7 MB

------------------------------------------------------------------------------
                                ORCA  MP2 
------------------------------------------------------------------------------

Freezing NCore=20 chemical core electrons

----------
MP2 ENERGY (disk based algorithm)
----------

Dimension of the basis                      ...  185
Memory devoted to MP2                       ... 4096 MB   
Data format for buffers                     ... DOUBLE
Compression type for matrix containers      ... UNCOMPRESSED

-------------------------
SHARK HALF TRANSFORMATION (Exchange order)
-------------------------

Number of basis functions                   ...    185
Number of operators                         ...      1
   Operator  0:   10-  38 (p-index in (p*|q*))
   Operator  0:   10-  38 (q-index in (p*|q*)
Integral generator used                     ... SHARK
Contraction scheme used                     ... SEGMENTED CONTRACTION
MaxCore in resort                           ...   4096 MB

Half transformed integrals for op=   0      ... 3.SHARK_MNPQ0.tmp
Resorted half transformed integrals         ... 3.KAO_aa.tmp

Half trafo (segmented) done. Total time = 10.4 sec. integrals=  9.4 sec trafo=  0.9 sec

----------------------
SHARK INTEGRAL SORTING (Exchange)
----------------------

Input container                             ... 3.SHARK_MNPQ0.tmp
Output container                            ... 3.KAO_aa.tmp
Range of AO-indices                         ...    0 -  184
Range of bra indices i                      ...   10 -   38
Range of ket indices j                      ...   10 -   38
Symmetric i,j range                         ... YES
Number of (i,j) pairs generated             ...  435
Max Core memory in MB                       ...   4096

Available core memory in MB                 ...   4086.70
MB needed for one item                      ...      0.26
Fixed MB needed                             ...      0.00
Number of items                             ...       435
Number of batches                           ...         1
Items treated per batch                     ...       435
Batch   0                                   ...      0-   434 (   435)
   => Closing output file and leaving
done (  0.1 sec)

SHARK half integral transformation done. Total time = 10.5 sec.


Finished integral transformation - now doing MP2 part

OPERATOR COMBINATION   0   0: ij=( 10.. 38, 10.. 38)
  Internal MO  12
  Internal MO  15
  Internal MO  18
  Internal MO  21
  Internal MO  24
  Internal MO  27
  Internal MO  30
  Internal MO  33
  Internal MO  36
-----------------------------------------------
 MP2 CORRELATION ENERGY   :     -1.545440284 Eh
-----------------------------------------------


-------
TIMINGS
-------
Total time                :   10.683 sec
Integral trafo            :   10.533 sec ( 98.6%)
K(i,j)                    :    0.123 sec (  1.1%)
T(i,j)                    :    0.004 sec (  0.0%)

---------------------------------------
MP2 TOTAL ENERGY:     -550.084909665 Eh
---------------------------------------

Maximum memory used throughout the entire MP2-calculation: 124.0 MB

-------------------------   --------------------
FINAL SINGLE POINT ENERGY      -550.084909665436
-------------------------   --------------------


------------------------------------------------------------------------------
                              ORCA PROPERTY CALCULATIONS
------------------------------------------------------------------------------

GBWName                                 ... 3.gbw
Number of atoms                         ...     19
Number of basis functions               ...    185
Max core memory                         ...   4096 MB

Electric properties:
Dipole moment                           ... YES
Quadrupole moment                       ...  NO
Static polarizability (Dipole/Dipole)   ...  NO
Static polarizability (Dipole/Quad.)    ...  NO
Static polarizability (Quad./Quad.)     ...  NO
Static polarizability (Velocity)        ...  NO
Static hyperpolarizability              ...  NO

Atomic electric properties:
Dipole moment                           ...  NO
Quadrupole moment                       ...  NO
Static polarizability                   ...  NO

Choice of electric origin               ... Center of mass
Position of electric origin             ...    -2.374470     1.202626     0.660669

General magnetic properties:
Magnetizability                         ...  NO

EPR properties:
g-Tensor (aka g-matrix)                 ...  NO
Zero-Field splitting spin-orbit         ...  NO
Zero-field splitting spin-spin          ...  NO
Hyperfine couplings                     ...  NO (   0 nuclei)
Quadrupole couplings                    ...  NO (   0 nuclei)
Contact density                         ...  NO (   0 nuclei)

NMR properties:
Chemical shifts                         ...  NO (   0 nuclei)
Spin-rotation constants                 ...  NO (   0 nuclei)
Spin-spin couplings                     ...  NO (   0 nuclei,    0 pairs)

Choice of magnetic origin               ... GIAO
Position of magnetic origin             ...     0.000000     0.000000     0.000000

Properties with geometric perturbations:
SCF Hessian                             ...  NO
IR spectrum                             ...  NO
VCD spectrum                            ...  NO
X-ray spectroscopy properties:
SCF XES/XAS/RIXS spectra                ...  NO

SCF SOC stabilization energy            ...  NO
Diagonal Born-Oppenheimer correction    ...  NO

-------------
DIPOLE MOMENT
-------------

Method             : SCF
Type of density    : Electron Density
Multiplicity       :   1
Irrep              :   0
Energy             :  -548.5394693816091376 Eh
Basis              : AO
                                X                 Y                 Z
Electronic contribution:      0.666294344      -0.939807957       2.423931160
Nuclear contribution   :     -0.144145158       1.809026940      -2.901104429
                        -----------------------------------------
Total Dipole Moment    :      0.522149186       0.869218983      -0.477173269
                        -----------------------------------------
Magnitude (a.u.)       :      1.120658620
Magnitude (Debye)      :      2.848487838



--------------------
Rotational spectrum 
--------------------
 
Rotational constants in cm-1:             0.096736             0.024028             0.022145 
Rotational constants in MHz :          2900.068260           720.334216           663.893425 

Dipole components along the rotational axes: 
x,y,z [a.u.] :    -0.454840    -0.710447    -0.737740 
x,y,z [Debye]:    -1.156112    -1.805814    -1.875187 

 

Dipole moment calculation done in   0.0 sec 

Maximum memory used throughout the entire PROP-calculation: 9.5 MB

--------------------------------
SUGGESTED CITATIONS FOR THIS RUN
--------------------------------

Below you find a list of papers that are relevant to this ORCA run
We neither can nor want to force you to cite these papers, but we appreciate if you do
You receive ORCA, which is the product of decades of hard work by many enthusiastic individuals, for free
The only thing we kindly ask in return is that you cite our papers,
We deeply appreciate it, if you show your appreciation for ORCA by not just citing the generic ORCA reference.

Please note that relegating all ORCA citations to the supporting information does *not* help us.
SI sections are not indexed - citations you put there will not count into any citation statistics
But we need these citations in order to attract the funding resources that allow us to do what we are doing

Therefore, if you are a happy ORCA user, please consider citing a few of the papers listed below in the main body of your paper

In addition to the list printed below, the program has created the file 3.bibtex that contains the list in bibtex format
You can import this file easily into all common literature databanks and citation aid programs


List of essential papers. We consider these as the minimum necessary citations

  1. Neese, F.
     Software update: the ORCA program system, version 6.0
     WIRES Comput. Molec. Sci. 2025 15(1), e70019
     doi.org/10.1002/wcms.7019

List of papers to cite with high priority. The work reported in these papers was absolutely
necessary for this run to complete.
Our perspective: the developers of density functionals and basis sets usually get cited in chemistry papers
Good! But without the algorithms to do something with them, the functionals or basis sets would not do anything.
Hence, in our opinion, the algorithm design and method developments papers are equally worthy of getting cited

  1. Neese, F.
     The SHARK Integral Generation and Digestion System
     J. Comp. Chem. 2022 44(3), 381
     doi.org/10.1002/jcc.26942

List of suggested additional citations. These are papers that are important in the 'surrounding' of 
of this run, or papers that preceded the highly important papers. If you like your results we are grateful for a citation.

  1. Neese, F.
     The ORCA program system
     WIRES Comput. Molec. Sci. 2012 2(1), 73-78
     doi.org/10.1002/wcms.81
  2. Neese, F.
     Software update: the ORCA program system, version 4.0
     WIRES Comput. Molec. Sci. 2018 8(1), 1-6
     doi.org/10.1002/wcms.1327
  3. Neese, F.; Wennmohs, F.; Becker, U.; Riplinger, C.
     The ORCA quantum chemistry program package
     J. Chem. Phys. 2020 152(22), 224108
     doi.org/10.1063/5.0004608
  4. Neese, F.
     Software update: The ORCA program system—Version 5.0
     WIRES Comput. Molec. Sci. 2022 12(1), e1606
     doi.org/10.1002/wcms.1606

List of optional additional citations

  1. Neese, F.
     Approximate second-order SCF convergence for spin unrestricted wavefunctions
     Chem. Phys. Lett. 2000 325(1-3), 93-98
     doi.org/10.1016/s0009-2614(00)00662-x

Timings for individual modules:

Sum of individual times          ...       28.870 sec (=   0.481 min)
Startup calculation              ...        0.405 sec (=   0.007 min)   1.4 %
SCF iterations                   ...       17.734 sec (=   0.296 min)  61.4 %
Property calculations            ...        0.024 sec (=   0.000 min)   0.1 %
MP2 module                       ...       10.707 sec (=   0.178 min)  37.1 %
                             ****ORCA TERMINATED NORMALLY****
TOTAL RUN TIME: 0 days 0 hours 0 minutes 28 seconds 907 msec
