
                                 *****************
                                 * O   R   C   A *
                                 *****************

                                            #,                                       
                                            ###                                      
                                            ####                                     
                                            #####                                    
                                            ######                                   
                                           ########,                                 
                                     ,,################,,,,,                         
                               ,,#################################,,                 
                          ,,##########################################,,             
                       ,#########################################, ''#####,          
                    ,#############################################,,   '####,        
                  ,##################################################,,,,####,       
                ,###########''''           ''''###############################       
              ,#####''   ,,,,##########,,,,          '''####'''          '####       
            ,##' ,,,,###########################,,,                        '##       
           ' ,,###''''                  '''############,,,                           
         ,,##''                                '''############,,,,        ,,,,,,###''
      ,#''                                            '''#######################'''  
     '                                                          ''''####''''         
             ,#######,   #######,   ,#######,      ##                                
            ,#'     '#,  ##    ##  ,#'     '#,    #''#        ,####,    ,#,          
            ##       ##  ##   ,#'  ##            #'  '#       #'       ,# #          
            ##       ##  #######   ##           ,######,      #####,      #          
            '#,     ,#'  ##    ##  '#,     ,#' ,#      #,     #,   #      #          
             '#######'   ##     ##  '#######'  #'      '#     '####' #    #          



                #########################################################
                #                        -***-                          #
                #          Department of theory and spectroscopy        #
                #                                                       #
                #                      Frank Neese                      #
                #                                                       #
                #     Directorship, Architecture, Infrastructure        #
                #                    SHARK, DRIVERS                     #
                #        Core code/Algorithms in most modules           #
                #                                                       #
                #        Max Planck Institute fuer Kohlenforschung      #
                #                Kaiser Wilhelm Platz 1                 #
                #                 D-45470 Muelheim/Ruhr                 #
                #                      Germany                          #
                #                                                       #
                #                  All rights reserved                  #
                #                        -***-                          #
                #########################################################


                         Program Version 6.1.0  -  RELEASE   -
                                (GIT: $679e74b$)
                          ($2025-06-10 18:02:51 +0200$)


 With contributions from (in alphabetic order):
[Max-Planck-Institut fuer Kohlenforschung]                               
  Daniel Aravena         : Magnetic Suceptibility                        
  Michael Atanasov       : Ab Initio Ligand Field Theory (pilot matlab implementation)
  Alexander A. Auer      : GIAO ZORA, VPT2 properties, NMR spectrum      
  Ute Becker             : All parallelization in ORCA, NUMFREQ, NUMCALC 
  Giovanni Bistoni       : ED, misc. LED, open-shell LED, HFLD           
  Dmytro Bykov           : pre 5.0 version of the SCF Hessian            
  Marcos Casanova-Páez   : Triplet and SCS-CIS(D). UHF-(DLPNO)-IP/EA/STEOM-CCSD. UHF-CVS-IP/STEOM-CCSD   
  Vijay G. Chilkuri      : MRCI spin determinant printing, contributions to CSF-ICE 
  Pauline Colinet        : FMM embedding                                 
  Dipayan Datta          : RHF DLPNO-CCSD density                        
  Achintya Kumar Dutta   : EOM-CC, STEOM-CC                              
  Nicolas Foglia         : Exact transition moments, OPA infrastructure, MCD improvements    
  Dmitry Ganyushin       : Spin-Orbit,Spin-Spin,Magnetic field MRCI      
  Miquel Garcia-Rates    : C-PCM and meta-GGA Hessian, CCSD/C-PCM, Gaussian charge scheme 
  Tiago L. C. Gouveia    : GS-ROHF, GS-ROCIS                             
  Yang Guo               : DLPNO-NEVPT2, F12-NEVPT2, CIM, IAO-localization        
  Andreas Hansen         : Spin unrestricted coupled pair/coupled cluster methods 
  Ingolf Harden          : AUTO-CI MPn and infrastructure                
  Benjamin Helmich-Paris : MC-RPA, TRAH-(SCF,CASSCF), AVAS, COSX integrals, SCF dyn. polar., MC-PDFT, srDFT 
  Lee Huntington         : MR-EOM, pCC                                   
  Robert Izsak           : Overlap fitted RIJCOSX, COSX-SCS-MP3, EOM     
  Riya Kayal             : Wick's Theorem for AUTO-CI, AUTO-CI UHF-CCSDT 
  Emily Kempfer          : AUTO-CI RHF CISDT and CCSDT, approximate NEVPT4
  Christian Kollmar      : KDIIS, OOCD, Brueckner-CCSD(T), CCSD density, CASPT2, CASPT2-K, improved NEVPT2 
  Axel Koslowski         : Symmetry handling                             
  Simone Kossmann        : meta-GGA functionals, TD-DFT gradient, OOMP2, (MP2 Hessian; deprecated post 5.0) 
  Lucas Lang             : DCDCAS, Hyperfine gauge corrections, ICE-SOC+SSC
  Marvin Lechner         : AUTO-CI (C++ implementation), FIC-MRCC        
  Spencer Leger          : CASSCF response                               
  Dagmar Lenk            : GEPOL surface, SMD, ORCA-2-JSON               
  Dimitrios Liakos       : Extrapolation schemes; Compound Job, Property file
  Dimitrios Manganas     : Further ROCIS development; embedding schemes. LFT, Crystal Embedding 
  Dimitrios Pantazis     : SARC Basis sets                               
  Anastasios Papadopoulos: AUTO-CI, single reference methods and gradients 
  Taras Petrenko         : pre 6.0 DFT Hessian and TD-DFT gradient,  ECA, NRVS 
  Petra Pikulova         : Analytic Raman intensities                    
  Peter Pinski           : DLPNO-MP2, DLPNO-MP2 Gradient                 
  Shashank Vittal Rao    : ES-AILFT, MagRelax                            
  Christoph Reimann      : Effective Core Potentials                     
  Marius Retegan         : Local ZFS, SOC                                
  Christoph Riplinger    : Optimizer, TS searches, QM/MM, DLPNO-CCSD(T), (RO)-DLPNO pert. Triples 
  Michael Roemelt        : Original ROCIS implementation, recursive CI coupling coefficients
  Masaaki Saitow         : Open-shell DLPNO-CCSD energy and density      
  Barbara Sandhoefer     : DKH picture change effects                    
  Yorick L. A. Schmerwitz: GMF and freeze-and-release deltaSCF, NEB S-IDPP initial path                    
  Kantharuban Sivalingam : CASSCF convergence/infrastructure, NEVPT2, NEVPT3, NEVPT4(SD), FIC-MRCI and CEPA variants
  Bernardo de Souza      : ESD, SOC TD-DFT                               
  Georgi L. Stoychev     : AutoAux, RI-MP2 NMR, DLPNO-MP2 response, X2C  
  Van Anh Tran           : RI-MP2 g-tensors                              
  Willem Van den Heuvel  : Paramagnetic NMR                              
  Zikuan Wang            : NOTCH, Electric field optimization            
  Frank Wennmohs         : Technical directorship and infrastructure     
  Hang Xu                : AUTO-CI-Response properties                   
                                                                         
[FACCTs GmbH]                                                            
  Markus Bursch, Nicolas Foglia, Miquel Garcia-Rates, Ingolf Harden, Hagen Neugebauer, Anastasios Papadopoulos, 
  Christoph Riplinger, Bernardo de Souza, Georgi L. Stoychev                                                    
                                                                 
  APM, various basis sets, CI-OPT, improved COSX, DLPNO-Multilevel,           
  DOCKER, DRACO, updates on ESD, Fragmentator, GOAT, IRC, LR-CPCM, L-BFGS, MBIS, meta-GGA TD-DFT gradient, ML-optimized integration grids, 
  MM, NACMEs, nearIR, NEB, NEB-TS, NL-DFT gradient (VV10), 2- and 3-layer-ONIOM, interface openCOSMO-RS, QMMM,   
  Crystal-QMMM, RESP, rigid body optimization, SF, symmetry and pop. for TD-DFT, various functionals, SOLVATOR                                   
                                                                         
[Other institutions]                                                     
  V. Asgeirsson          : NEB                                           
  Christoph Bannwarth    : sTDA-DFT, sTD-DFT, PBEh-3c, B97-3c, D3        
  Giovanni Bistoni       : ETS/NOCV, ADLD/ADEX, COVALED                  
  Martin Brehm           : Molecular dynamics                            
  Ronald Cardenas        : ETS/NOCV                                      
  Martina Colucci        : COVALED                                       
  Sebastian Ehlert       : rSCAN, r2SCAN, r2SCAN-3c, D4, dhf basis sets  
  Marvin Friede          : D4 for Fr, Ra, Ac-Lr                          
  Lars Goerigk           : TD-DFT with DH, B97 family of functionals     
  Stefan Grimme          : VdW corrections, initial TS optimization, DFT functionals, gCP, sTDA/sTD-DF 
  Waldemar Hujo          : DFT-NL                                        
  H. Jonsson             : NEB                                           
  Holger Kruse           : gCP                                           
  Marcel Mueller         : wB97X-3c, vDZP basis set                      
  Hagen Neugebauer       : wr2SCAN, Native XTB                           
  Gianluca Regni         : ADLD/ADEX                                     
  Tobias Risthaus        : pre 6.0 range-separated hybrid DFT and stability analysis
  Lukas Wittmann         : regularized MP2, r2SCAN double-hybrids, wr2SCAN        
                                                                         
We gratefully acknowledge several colleagues who have allowed us to      
interface, adapt or use parts of their codes:                            
  Ed Valeev, F. Pavosevic, A. Kumar             : LibInt (2-el integral package), F12 methods 
  Garnet Chan, S. Sharma, J. Yang, R. Olivares  : DMRG                   
  Ulf Ekstrom                                   : XCFun DFT Library      
  Mihaly Kallay                                 : mrcc  (arbitrary order and MRCC methods)
  Frank Weinhold                                : gennbo (NPA and NBO analysis)           
  Simon Mueller                                 : openCOSMO-RS                            
  Christopher J. Cramer and Donald G. Truhlar   : smd solvation model                     
  S Lehtola, MJT Oliveira, MAL Marques          : LibXC Library                           
  Liviu Ungur et al                             : ANISO software                          


 Your calculation uses the libint2 library for the computation of 2-el integrals
 For citations please refer to: http://libint.valeyev.net

 Your ORCA version has been built with support for libXC version: 7.0.0
 For citations please refer to: https://libxc.gitlab.io

 This ORCA versions uses:
   CBLAS   interface :  Fast vector & matrix operations
   LAPACKE interface :  Fast linear algebra routines
   SCALAPACK package :  Parallel linear algebra routines
   Shared memory     :  Shared parallel matrices
   BLAS/LAPACK       :  OpenBLAS 0.3.29  USE64BITINT DYNAMIC_ARCH NO_AFFINITY Haswell SINGLE_THREADED
        Core in use  :  Haswell
   Copyright (c) 2011-2014, The OpenBLAS Project


  ***********************************
  * Starting time: Thu Aug 14 00:52:41 2025
  * Host name:     CHEMLAB02
  * Process ID:    1542741
  * Working dir.:  /home/vivek/mm-project/vivek/MP2/e/2
  ***********************************



***************************************
The coordinates will be read from file: /home/vivek/mm-project/vivek/xtb-goat/e/E_CONF/2.xyz
***************************************


================================================================================

----- Orbital basis set information -----
Your calculation utilizes the basis: 6-31G**
   H-He, Li-Ne : W. J. Hehre, R. Ditchfield and J.A. Pople, J. Chem. Phys. 56, 2257 (1972).
                 Note: He and Ne are unpublished basis sets taken from the Gaussian program.
                 Note: Li and B from J. D. Dill and J. A. Pople, J. Chem. Phys. 62, 2921 (1975).
   Na - Ar     : M. M. Francl, W. J. Pietro, W. J. Hehre, J. S. Binkley, M. S. Gordon, 
                 D. J. DeFrees and J. A. Pople, J. Chem. Phys. 77, 3654 (1982).
   K - Zn      : V. A. Rassolov, J. A. Pople, M. A. Ratner, and T. L. Windus, J. Chem. Phys. 109, 1223 (1998).

================================================================================
                                        WARNINGS
                       Please study these warnings very carefully!
================================================================================


WARNING: No MP2 level density has been requested!
         To calculate MP2 level properties use
         %mp2 Density relaxed end
         or
         %mp2 Density unrelaxed end

WARNING: Post HF methods need fully converged wavefunctions
  ===> : Setting SCFConvForced true
         You can overwrite this default with %scf ConvForced false 


================================================================================
                                       INPUT FILE
================================================================================
NAME = 2.inp
|  1> ! MP2 6-31G** 
|  2> 
|  3> * xyzfile 0 1 /home/vivek/mm-project/vivek/xtb-goat/e/E_CONF/2.xyz
|  4> 
|  5>                          ****END OF INPUT****
================================================================================

                       ****************************
                       * Single Point Calculation *
                       ****************************

---------------------------------
CARTESIAN COORDINATES (ANGSTROEM)
---------------------------------
  C     -2.797156   -0.445423   -0.094750
  C     -2.360665    0.612925   -1.080924
  H     -0.016679    2.943180    1.328215
  H      1.422605    2.422080    0.744387
  O     -2.957408   -1.629771   -0.684331
  C     -1.634813    1.770281   -0.403026
  H     -1.741922    0.138568   -1.842668
  H     -3.268830    0.980933   -1.565444
  C     -0.190708    1.418447   -0.002993
  H     -1.583130    2.627988   -1.073467
  H     -2.186064    2.061929    0.493512
  C     -0.236102    0.265666    0.996332
  O     -0.138847   -0.898056    0.704072
  N      0.459326    2.616190    0.493707
  H     -3.213434   -2.304894   -0.036274
  O     -0.396910    0.691528    2.249634
  H      0.354847    1.069679   -0.887491
  O     -3.016425   -0.263023    1.073837
  H     -0.526658   -0.058904    2.849567

----------------------------
CARTESIAN COORDINATES (A.U.)
----------------------------
  NO LB      ZA    FRAG     MASS         X           Y           Z
   0 C     6.0000    0    12.011   -5.285860   -0.841727   -0.179052
   1 C     6.0000    0    12.011   -4.461011    1.158260   -2.042650
   2 H     1.0000    0     1.008   -0.031519    5.561803    2.509963
   3 H     1.0000    0     1.008    2.688334    4.577067    1.406687
   4 O     8.0000    0    15.999   -5.588692   -3.079821   -1.293199
   5 C     6.0000    0    12.011   -3.089349    3.345346   -0.761609
   6 H     1.0000    0     1.008   -3.291755    0.261855   -3.482137
   7 H     1.0000    0     1.008   -6.177193    1.853696   -2.958261
   8 C     6.0000    0    12.011   -0.360386    2.680476   -0.005655
   9 H     1.0000    0     1.008   -2.991681    4.966178   -2.028559
  10 H     1.0000    0     1.008   -4.131063    3.896482    0.932603
  11 C     6.0000    0    12.011   -0.446169    0.502037    1.882795
  12 O     8.0000    0    15.999   -0.262383   -1.697081    1.330504
  13 N     7.0000    0    14.007    0.868001    4.943882    0.932971
  14 H     1.0000    0     1.008   -6.072510   -4.355618   -0.068548
  15 O     8.0000    0    15.999   -0.750052    1.306798    4.251193
  16 H     1.0000    0     1.008    0.670563    2.021401   -1.677114
  17 O     8.0000    0    15.999   -5.700218   -0.497041    2.029258
  18 H     1.0000    0     1.008   -0.995239   -0.111312    5.384902

--------------------------------
INTERNAL COORDINATES (ANGSTROEM)
--------------------------------
 C      0   0   0     0.000000000000     0.00000000     0.00000000
 C      1   0   0     1.511013479041     0.00000000     0.00000000
 H      2   1   0     4.090025539119   100.38015832     0.00000000
 H      3   2   1     1.638273651541    96.45107773   104.41620356
 O      1   2   3     1.332654450627   111.62122980   212.70520500
 C      2   1   3     1.525083678573   112.26671334   350.84001971
 H      2   1   3     1.090005526821   108.37710930   114.76763025
 H      2   1   3     1.093139147010   106.56423151   230.73118056
 C      6   2   1     1.539238148529   112.86650355    76.02386654
 H      6   2   1     1.089873442991   110.26469214   195.84546346
 H      6   2   1     1.092116213229   109.10625249   315.02217345
 C      9   6   2     1.526307005526   108.35443342   298.60144667
 O     12   9   6     1.203796042623   124.66462204    94.00807045
 N      4   3   2     1.014112899462    36.16790459    33.28485128
 H      5   1   2     0.970215418122   110.77095467   178.42234292
 O     12   9   6     1.333410493701   112.19548901   273.96900976
 H      9   6   2     1.096177667202   109.26574687    55.59670448
 O      1   2   3     1.202890067958   125.48531827    34.66709371
 H     16  12   9     0.969485232995   110.52184925   173.36252758

---------------------------
INTERNAL COORDINATES (A.U.)
---------------------------
 C      0   0   0     0.000000000000     0.00000000     0.00000000
 C      1   0   0     2.855401660051     0.00000000     0.00000000
 H      2   1   0     7.729028149678   100.38015832     0.00000000
 H      3   2   1     3.095888533831    96.45107773   104.41620356
 O      1   2   3     2.518351942837   111.62122980   212.70520500
 C      2   1   3     2.881990483815   112.26671334   350.84001971
 H      2   1   3     2.059811930152   108.37710930   114.76763025
 H      2   1   3     2.065733614117   106.56423151   230.73118056
 C      6   2   1     2.908738555604   112.86650355    76.02386654
 H      6   2   1     2.059562327886   110.26469214   195.84546346
 H      6   2   1     2.063800549418   109.10625249   315.02217345
 C      9   6   2     2.884302236730   108.35443342   298.60144667
 O     12   9   6     2.274844841656   124.66462204    94.00807045
 N      4   3   2     1.916395648860    36.16790459    33.28485128
 H      5   1   2     1.833441431159   110.77095467   178.42234292
 O     12   9   6     2.519780657191   112.19548901   273.96900976
 H      9   6   2     2.071475585133   109.26574687    55.59670448
 O      1   2   3     2.273132797655   125.48531827    34.66709371
 H     16  12   9     1.832061581242   110.52184925   173.36252758

---------------------
BASIS SET INFORMATION
---------------------
There are 4 groups of distinct atoms

 Group   1 Type C   : 10s4p1d contracted to 3s2p1d pattern {631/31/1}
 Group   2 Type H   : 4s1p contracted to 2s1p pattern {31/1}
 Group   3 Type O   : 10s4p1d contracted to 3s2p1d pattern {631/31/1}
 Group   4 Type N   : 10s4p1d contracted to 3s2p1d pattern {631/31/1}

Atom   0C    basis set group =>   1
Atom   1C    basis set group =>   1
Atom   2H    basis set group =>   2
Atom   3H    basis set group =>   2
Atom   4O    basis set group =>   3
Atom   5C    basis set group =>   1
Atom   6H    basis set group =>   2
Atom   7H    basis set group =>   2
Atom   8C    basis set group =>   1
Atom   9H    basis set group =>   2
Atom  10H    basis set group =>   2
Atom  11C    basis set group =>   1
Atom  12O    basis set group =>   3
Atom  13N    basis set group =>   4
Atom  14H    basis set group =>   2
Atom  15O    basis set group =>   3
Atom  16H    basis set group =>   2
Atom  17O    basis set group =>   3
Atom  18H    basis set group =>   2
------------------------------------------------------------------------------
                             ORCA STARTUP CALCULATIONS
------------------------------------------------------------------------------
------------------------------------------------------------------------------
                   ___                                                        
                  /   \      - P O W E R E D   B Y -                         
                 /     \                                                     
                 |  |  |   _    _      __       _____    __    __             
                 |  |  |  | |  | |    /  \     |  _  \  |  |  /  |          
                  \  \/   | |  | |   /    \    | | | |  |  | /  /          
                 / \  \   | |__| |  /  /\  \   | |_| |  |  |/  /          
                |  |  |   |  __  | /  /__\  \  |    /   |      \           
                |  |  |   | |  | | |   __   |  |    \   |  |\   \          
                \     /   | |  | | |  |  |  |  | |\  \  |  | \   \       
                 \___/    |_|  |_| |__|  |__|  |_| \__\ |__|  \__/        
                                                                              
                      - O R C A' S   B I G   F R I E N D -                    
                                      &                                       
                       - I N T E G R A L  F E E D E R -                       
                                                                              
 v1 FN, 2020, v2 2021, v3 2022-2024                                           
------------------------------------------------------------------------------


----------------------
SHARK INTEGRAL PACKAGE
----------------------

Number of atoms                             ...     19
Number of basis functions                   ...    185
Number of shells                            ...     87
Maximum angular momentum                    ...      2
Integral batch strategy                     ... SHARK/LIBINT Hybrid
RI-J (if used) integral strategy            ... SPLIT-RIJ (Revised 2003 algorithm where possible)
Printlevel                                  ...      1
Contraction scheme used                     ... SEGMENTED contraction
Prescreening option                         ... SCHWARTZ
   Thresh                                   ... 1.000e-10
   Tcut                                     ... 1.000e-11
   Tpresel                                  ... 1.000e-11 
Coulomb Range Separation                    ... NOT USED
Exchange Range Separation                   ... NOT USED
Multipole approximations                    ... NOT USED
Finite Nucleus Model                        ... NOT USED
CABS basis                                  ... NOT available
Auxiliary Coulomb fitting basis             ... NOT available
Auxiliary J/K fitting basis                 ... NOT available
Auxiliary Correlation fitting basis         ... NOT available
Auxiliary 'external' fitting basis          ... NOT available

Checking pre-screening integrals            ... done (  0.0 sec) Dimension = 87
   => SHARK Basis and OBASIS are compatible. Storing Pre-screening
Shell pair information
Shell pair cut-off parameter TPreSel        ...   1.0e-11
Total number of shell pairs                 ...      3828
Shell pairs after pre-screening             ...      3454
Total number of primitive shell pairs       ...     19347
Primitive shell pairs kept                  ...     11277
          la=0 lb=0:   1045 shell pairs
          la=1 lb=0:   1247 shell pairs
          la=1 lb=1:    398 shell pairs
          la=2 lb=0:    443 shell pairs
          la=2 lb=1:    267 shell pairs
          la=2 lb=2:     54 shell pairs

Checking whether 4 symmetric matrices of dimension 185 fit in memory
:Max Core in MB      =   4096.00
 MB in use           =      5.93
 MB left             =   4090.07
 MB needed           =      0.53
 Data fit in memory  = YES
Calculating Nuclear repulsion               ... done (  0.0 sec) ENN=    582.766122090233 Eh

Diagonalization of the overlap matrix:
Smallest eigenvalue                        ... 3.241e-03
Time for diagonalization                   ...    0.002 sec
Threshold for overlap eigenvalues          ... 1.000e-07
Number of eigenvalues below threshold      ... 0
Time for construction of square roots      ...    0.001 sec
Total time needed                          ...    0.002 sec

-------------------
DFT GRID GENERATION
-------------------

General Integration Accuracy     IntAcc      ... 4.388
Radial Grid Type                 RadialGrid  ... OptM3 with GC (2021)
Angular Grid (max. ang.)         AngularGrid ... 4 (Lebedev-302)
Angular grid pruning method      GridPruning ... 4 (adaptive)
Weight generation scheme         WeightScheme... mBecke (2022)
Basis function cutoff            BFCut       ... 1.0000e-10
Integration weight cutoff        WCut        ... 1.0000e-14
Partially contracted basis set               ... off
Rotationally invariant grid construction     ... off
Angular grids for H and He will be reduced by one unit

Total number of grid points                  ...    89137
Total number of batches                      ...     1401
Average number of points per batch           ...       63
Average number of grid points per atom       ...     4691
Grids setup in   0.4 sec
Initializing property integral containers    ... done (  0.0 sec)

SHARK setup successfully completed in   0.4 seconds

Maximum memory used throughout the entire STARTUP-calculation: 35.6 MB
-------------------------------------------------------------------------------
                                 ORCA GUESS
                   Start orbitals & Density for SCF / CASSCF
-------------------------------------------------------------------------------

------------
SCF SETTINGS
------------
Hamiltonian:
 Ab initio Hamiltonian  Method          .... Hartree-Fock(GTOs)


General Settings:
 Integral files         IntName         .... 2
 Hartree-Fock type      HFTyp           .... RHF
 Total Charge           Charge          ....    0
 Multiplicity           Mult            ....    1
 Number of Electrons    NEL             ....   78
 Basis Dimension        Dim             ....  185
 Nuclear Repulsion      ENuc            ....    582.7661220902 Eh

Convergence Acceleration:
 AO-DIIS                CNVDIIS         .... on
   Start iteration      DIISMaxIt       ....    12
   Startup error        DIISStart       ....  0.200000
   # of expansion vecs  DIISMaxEq       ....     5
   Bias factor          DIISBfac        ....   1.050
   Max. coefficient     DIISMaxC        ....  10.000
 MO-DIIS                CNVKDIIS        .... off
 Trust-Rad. Augm. Hess. CNVTRAH         .... auto
   Auto Start mean grad. ratio tolernc. ....  1.125000
   Auto Start start iteration           ....    50
   Auto Start num. interpolation iter.  ....    10
   Max. Number of Micro iterations      ....    24
   Max. Number of Macro iterations      .... Maxiter - #DIIS iter
   Number of Davidson start vectors     ....     2
   Converg. threshold    (grad. norm)   ....   5.000e-05
   Grad. Scal. Fac. for Micro threshold ....   0.100
   Minimum threshold for Micro iter.    ....   1.000e-02
   NR start threshold (gradient norm)   ....   1.000e-04
   Initial trust radius                 ....   0.400
   Minimum AH scaling param. (alpha)    ....   1.000
   Maximum AH scaling param. (alpha)    .... 1000.000
   Quad. conv. algorithm                .... NR
   White noise on init. David. guess    .... on
   Maximum white noise                  ....   0.010
   Pseudo random numbers                .... off
   Inactive MOs                         .... canonical
   Orbital update algorithm             .... Taylor
   Preconditioner                       .... Diag
   Full preconditioner red. dimension   ....   250
 SOSCF                 CNVSOSCF           .... on
   Start iteration     SOSCFMaxIt         ....   150
   Startup grad/error  SOSCFStart         ....  0.003300
   Hessian update      SOSCFHessUp        .... L-BFGS
   Autom. constraints  SOSCFAutoConstrain .... off
 Level Shifting         CNVShift        .... on
   Level shift para.    LevelShift      ....    0.2500
   Turn off err/grad.   ShiftErr        ....    0.0010
 Zerner damping         CNVZerner       .... off
 Static damping         CNVDamp         .... on
   Fraction old density DampFac         ....    0.7000
   Max. Damping (<1)    DampMax         ....    0.9800
   Min. Damping (>=0)   DampMin         ....    0.0000
   Turn off err/grad.   DampErr         ....    0.1000

SCF Procedure:
 Maximum # iterations   MaxIter         ....   125
 SCF integral mode      SCFMode         .... Direct
   Integral package                     .... SHARK and LIBINT hybrid scheme
 Reset frequency        DirectResetFreq ....    20
 Integral Threshold     Thresh          ....  1.000e-10 Eh
 Primitive CutOff       TCut            ....  1.000e-11 Eh

Convergence Tolerance:
 Convergence Check Mode ConvCheckMode   .... Total+1el-Energy
 Convergence forced     ConvForced      .... 1
 Energy Change          TolE            ....  1.000e-06 Eh
 1-El. energy change                    ....  1.000e-03 Eh
 Orbital Gradient       TolG            ....  5.000e-05
 Orbital Rotation angle TolX            ....  5.000e-05
 DIIS Error             TolErr          ....  1.000e-06

------------------------------
INITIAL GUESS: MODEL POTENTIAL
------------------------------
Loading Hartree-Fock densities                     ... done
Calculating cut-offs                               ... done
Initializing the effective Hamiltonian             ... done
Setting up the integral package (SHARK)            ... done
Starting the Coulomb interaction                   ... done (   0.1 sec)
Making the grid                                    ... done (   0.1 sec)
Mapping shells                                     ... done
Starting the XC term evaluation                    ... done (   0.0 sec)
Transforming the Hamiltonian                       ... done (   0.0 sec)
Diagonalizing the Hamiltonian                      ... done (   0.0 sec)
Back transforming the eigenvectors                 ... done (   0.0 sec)
Now organizing SCF variables                       ... done
                      ------------------
                      INITIAL GUESS DONE (   0.2 sec)
                      ------------------
             **** ENERGY FILE WAS UPDATED (2.en.tmp) ****
Finished Guess after   0.2 sec
Maximum memory used throughout the entire GUESS-calculation: 11.3 MB

-------------------------------------------------------------------------------------------
                                      ORCA LEAN-SCF
                              memory conserving SCF solver
-------------------------------------------------------------------------------------------

----------------------------------------D-I-I-S--------------------------------------------
Iteration    Energy (Eh)           Delta-E    RMSDP     MaxDP     DIISErr   Damp  Time(sec)
-------------------------------------------------------------------------------------------
               ***  Starting incremental Fock matrix formation  ***
    1    -548.1166648813248230     0.00e+00  2.54e-03  6.27e-02  2.53e-01  0.700   1.8
    2    -548.2684049130116364    -1.52e-01  1.86e-03  4.50e-02  1.56e-01  0.700   1.7
                               ***Turning on AO-DIIS***
    3    -548.3564381100065930    -8.80e-02  1.00e-03  2.06e-02  8.95e-02  0.700   1.7
    4    -548.4119745154337124    -5.55e-02  2.30e-03  4.80e-02  6.34e-02  0.000   1.7
    5    -548.5361294077981711    -1.24e-01  2.98e-04  6.58e-03  6.37e-03  0.000   1.7
    6    -548.5367308696345390    -6.01e-04  1.43e-04  2.63e-03  3.83e-03  0.000   1.6
                              *** Initializing SOSCF ***
---------------------------------------S-O-S-C-F--------------------------------------
Iteration    Energy (Eh)           Delta-E    RMSDP     MaxDP     MaxGrad    Time(sec)
--------------------------------------------------------------------------------------
    7    -548.5368693022255684    -1.38e-04  9.16e-05  2.32e-03  2.04e-03     1.5
               *** Restarting incremental Fock matrix formation ***
    8    -548.5369160178761376    -4.67e-05  4.29e-05  7.66e-04  5.90e-04     1.8
    9    -548.5369262958947729    -1.03e-05  4.64e-05  1.27e-03  3.34e-04     1.4
   10    -548.5369302582139426    -3.96e-06  7.33e-06  2.12e-04  7.48e-05     1.4
   11    -548.5369304372379702    -1.79e-07  2.78e-06  7.84e-05  3.34e-05     1.2
                 **** Energy Check signals convergence ****

               *****************************************************
               *                     SUCCESS                       *
               *           SCF CONVERGED AFTER  11 CYCLES          *
               *****************************************************

             **** ENERGY FILE WAS UPDATED (2.en.tmp) ****

----------------
TOTAL SCF ENERGY
----------------

Total Energy       :       -548.53693049195181 Eh          -14926.44872 eV

Components:
Nuclear Repulsion  :        582.76612209023278 Eh           15857.87238 eV
Electronic Energy  :      -1131.30305258218459 Eh          -30784.32111 eV
One Electron Energy:      -1909.22453947431882 Eh          -51952.64094 eV
Two Electron Energy:        777.92148689213423 Eh           21168.31983 eV

Virial components:
Potential Energy   :      -1096.35762752405981 Eh          -29833.40775 eV
Kinetic Energy     :        547.82069703210811 Eh           14906.95902 eV
Virial Ratio       :          2.00130742314725

---------------
SCF CONVERGENCE
---------------

  Last Energy change         ...    1.7902e-07  Tolerance :   1.0000e-06
  Last MAX-Density change    ...    7.8367e-05  Tolerance :   1.0000e-05
  Last RMS-Density change    ...    2.7760e-06  Tolerance :   1.0000e-06
  Last DIIS Error            ...    2.0382e-03  Tolerance :   1.0000e-06
  Last Orbital Gradient      ...    3.3405e-05  Tolerance :   5.0000e-05
  Last Orbital Rotation      ...    2.7239e-05  Tolerance :   5.0000e-05


----------------
ORBITAL ENERGIES
----------------

  NO   OCC          E(Eh)            E(eV) 
   0   2.0000     -20.613726      -560.9280 
   1   2.0000     -20.611035      -560.8548 
   2   2.0000     -20.549731      -559.1866 
   3   2.0000     -20.548334      -559.1486 
   4   2.0000     -15.553567      -423.2341 
   5   2.0000     -11.386468      -309.8416 
   6   2.0000     -11.381393      -309.7034 
   7   2.0000     -11.276789      -306.8570 
   8   2.0000     -11.248003      -306.0737 
   9   2.0000     -11.239622      -305.8457 
  10   2.0000      -1.468775       -39.9674 
  11   2.0000      -1.463031       -39.8111 
  12   2.0000      -1.360542       -37.0222 
  13   2.0000      -1.358348       -36.9625 
  14   2.0000      -1.203875       -32.7591 
  15   2.0000      -1.081090       -29.4179 
  16   2.0000      -0.974782       -26.5252 
  17   2.0000      -0.897705       -24.4278 
  18   2.0000      -0.824307       -22.4305 
  19   2.0000      -0.794259       -21.6129 
  20   2.0000      -0.711309       -19.3557 
  21   2.0000      -0.699303       -19.0290 
  22   2.0000      -0.694604       -18.9011 
  23   2.0000      -0.681723       -18.5506 
  24   2.0000      -0.668066       -18.1790 
  25   2.0000      -0.660390       -17.9701 
  26   2.0000      -0.620358       -16.8808 
  27   2.0000      -0.602648       -16.3989 
  28   2.0000      -0.593754       -16.1569 
  29   2.0000      -0.572255       -15.5719 
  30   2.0000      -0.556585       -15.1454 
  31   2.0000      -0.527908       -14.3651 
  32   2.0000      -0.511327       -13.9139 
  33   2.0000      -0.500860       -13.6291 
  34   2.0000      -0.481786       -13.1101 
  35   2.0000      -0.472837       -12.8666 
  36   2.0000      -0.462097       -12.5743 
  37   2.0000      -0.444661       -12.0998 
  38   2.0000      -0.392934       -10.6923 
  39   0.0000       0.179668         4.8890 
  40   0.0000       0.190442         5.1822 
  41   0.0000       0.217024         5.9055 
  42   0.0000       0.230751         6.2791 
  43   0.0000       0.253683         6.9031 
  44   0.0000       0.255116         6.9421 
  45   0.0000       0.271620         7.3912 
  46   0.0000       0.313215         8.5230 
  47   0.0000       0.317316         8.6346 
  48   0.0000       0.332190         9.0394 
  49   0.0000       0.338156         9.2017 
*Only the first 10 virtual orbitals were printed.

                    ********************************
                    * MULLIKEN POPULATION ANALYSIS *
                    ********************************

-----------------------
MULLIKEN ATOMIC CHARGES
-----------------------
   0 C :    0.822694
   1 C :   -0.325973
   2 H :    0.285281
   3 H :    0.274190
   4 O :   -0.632544
   5 C :   -0.240177
   6 H :    0.170560
   7 H :    0.169004
   8 C :   -0.023317
   9 H :    0.154737
  10 H :    0.160995
  11 C :    0.806170
  12 O :   -0.602480
  13 N :   -0.687600
  14 H :    0.371783
  15 O :   -0.637855
  16 H :    0.163256
  17 O :   -0.606057
  18 H :    0.377331
Sum of atomic charges:    0.0000000

--------------------------------
MULLIKEN REDUCED ORBITAL CHARGES
--------------------------------
  0 C s       :     2.942550  s :     2.942550
      pz      :     0.753101  p :     2.085097
      px      :     0.633935
      py      :     0.698061
      dz2     :     0.032793  d :     0.149659
      dxz     :     0.028999
      dyz     :     0.056842
      dx2y2   :     0.015571
      dxy     :     0.015454

  1 C s       :     3.266654  s :     3.266654
      pz      :     0.986184  p :     3.013221
      px      :     1.073726
      py      :     0.953311
      dz2     :     0.003134  d :     0.046098
      dxz     :     0.010934
      dyz     :     0.015383
      dx2y2   :     0.007293
      dxy     :     0.009355

  2 H s       :     0.688533  s :     0.688533
      pz      :     0.012717  p :     0.026186
      px      :     0.006374
      py      :     0.007096

  3 H s       :     0.699677  s :     0.699677
      pz      :     0.005936  p :     0.026133
      px      :     0.014898
      py      :     0.005298

  4 O s       :     3.838149  s :     3.838149
      pz      :     1.657976  p :     4.768736
      px      :     1.813493
      py      :     1.297267
      dz2     :     0.003458  d :     0.025659
      dxz     :     0.003722
      dyz     :     0.012711
      dx2y2   :     0.003061
      dxy     :     0.002705

  5 C s       :     3.249706  s :     3.249706
      pz      :     1.063694  p :     2.942689
      px      :     0.895472
      py      :     0.983522
      dz2     :     0.005763  d :     0.047783
      dxz     :     0.010332
      dyz     :     0.012848
      dx2y2   :     0.011048
      dxy     :     0.007791

  6 H s       :     0.816719  s :     0.816719
      pz      :     0.005409  p :     0.012721
      px      :     0.004113
      py      :     0.003199

  7 H s       :     0.817927  s :     0.817927
      pz      :     0.003435  p :     0.013068
      px      :     0.006833
      py      :     0.002801

  8 C s       :     3.202128  s :     3.202128
      pz      :     0.967173  p :     2.750937
      px      :     0.967566
      py      :     0.816198
      dz2     :     0.008705  d :     0.070252
      dxz     :     0.011305
      dyz     :     0.021360
      dx2y2   :     0.016787
      dxy     :     0.012094

  9 H s       :     0.832671  s :     0.832671
      pz      :     0.004328  p :     0.012591
      px      :     0.001666
      py      :     0.006597

 10 H s       :     0.826257  s :     0.826257
      pz      :     0.007001  p :     0.012748
      px      :     0.003719
      py      :     0.002028

 11 C s       :     2.957401  s :     2.957401
      pz      :     0.683184  p :     2.089021
      px      :     0.611829
      py      :     0.794009
      dz2     :     0.034585  d :     0.147408
      dxz     :     0.016161
      dyz     :     0.053457
      dx2y2   :     0.018273
      dxy     :     0.024933

 12 O s       :     3.880312  s :     3.880312
      pz      :     1.813333  p :     4.689551
      px      :     1.487241
      py      :     1.388976
      dz2     :     0.003437  d :     0.032617
      dxz     :     0.000809
      dyz     :     0.007728
      dx2y2   :     0.008067
      dxy     :     0.012576

 13 N s       :     3.604052  s :     3.604052
      pz      :     1.471471  p :     4.048993
      px      :     1.158159
      py      :     1.419363
      dz2     :     0.007883  d :     0.034555
      dxz     :     0.008007
      dyz     :     0.003453
      dx2y2   :     0.008239
      dxy     :     0.006973

 14 H s       :     0.586583  s :     0.586583
      pz      :     0.015175  p :     0.041634
      px      :     0.010078
      py      :     0.016381

 15 O s       :     3.837356  s :     3.837356
      pz      :     1.307740  p :     4.775163
      px      :     1.831510
      py      :     1.635913
      dz2     :     0.005309  d :     0.025336
      dxz     :     0.002865
      dyz     :     0.010778
      dx2y2   :     0.004013
      dxy     :     0.002370

 16 H s       :     0.824735  s :     0.824735
      pz      :     0.006684  p :     0.012009
      px      :     0.003296
      py      :     0.002028

 17 O s       :     3.878477  s :     3.878477
      pz      :     1.367394  p :     4.695066
      px      :     1.513662
      py      :     1.814010
      dz2     :     0.012038  d :     0.032514
      dxz     :     0.011990
      dyz     :     0.007166
      dx2y2   :     0.000635
      dxy     :     0.000685

 18 H s       :     0.580915  s :     0.580915
      pz      :     0.014195  p :     0.041754
      px      :     0.009210
      py      :     0.018350



                     *******************************
                     * LOEWDIN POPULATION ANALYSIS *
                     *******************************

----------------------
LOEWDIN ATOMIC CHARGES
----------------------
   0 C :    0.245931
   1 C :   -0.136029
   2 H :    0.134222
   3 H :    0.129975
   4 O :   -0.198277
   5 C :   -0.101979
   6 H :    0.089439
   7 H :    0.095875
   8 C :   -0.020395
   9 H :    0.080375
  10 H :    0.081616
  11 C :    0.227373
  12 O :   -0.314804
  13 N :   -0.277043
  14 H :    0.201970
  15 O :   -0.200730
  16 H :    0.080933
  17 O :   -0.322668
  18 H :    0.204214

-------------------------------
LOEWDIN REDUCED ORBITAL CHARGES
-------------------------------
  0 C s       :     2.838558  s :     2.838558
      pz      :     1.013210  p :     2.593077
      px      :     0.686236
      py      :     0.893631
      dz2     :     0.072405  d :     0.322434
      dxz     :     0.056629
      dyz     :     0.128987
      dx2y2   :     0.033158
      dxy     :     0.031254

  1 C s       :     2.894311  s :     2.894311
      pz      :     1.049200  p :     3.154559
      px      :     1.073185
      py      :     1.032173
      dz2     :     0.006342  d :     0.087159
      dxz     :     0.019518
      dyz     :     0.029954
      dx2y2   :     0.013508
      dxy     :     0.017836

  2 H s       :     0.783458  s :     0.783458
      pz      :     0.040136  p :     0.082319
      px      :     0.019274
      py      :     0.022909

  3 H s       :     0.788382  s :     0.788382
      pz      :     0.019437  p :     0.081643
      px      :     0.043950
      py      :     0.018256

  4 O s       :     3.454881  s :     3.454881
      pz      :     1.634754  p :     4.695155
      px      :     1.761230
      py      :     1.299171
      dz2     :     0.005832  d :     0.048241
      dxz     :     0.003929
      dyz     :     0.022916
      dx2y2   :     0.009692
      dxy     :     0.005872

  5 C s       :     2.891181  s :     2.891181
      pz      :     1.075915  p :     3.120520
      px      :     1.003445
      py      :     1.041160
      dz2     :     0.010468  d :     0.090278
      dxz     :     0.019258
      dyz     :     0.022846
      dx2y2   :     0.021964
      dxy     :     0.015743

  6 H s       :     0.869025  s :     0.869025
      pz      :     0.017695  p :     0.041536
      px      :     0.013475
      py      :     0.010366

  7 H s       :     0.863107  s :     0.863107
      pz      :     0.011200  p :     0.041017
      px      :     0.020568
      py      :     0.009249

  8 C s       :     2.871095  s :     2.871095
      pz      :     1.023829  p :     3.008530
      px      :     1.028579
      py      :     0.956122
      dz2     :     0.016927  d :     0.140770
      dxz     :     0.021287
      dyz     :     0.043453
      dx2y2   :     0.034751
      dxy     :     0.024354

  9 H s       :     0.878882  s :     0.878882
      pz      :     0.014264  p :     0.040743
      px      :     0.006348
      py      :     0.020131

 10 H s       :     0.876735  s :     0.876735
      pz      :     0.021232  p :     0.041649
      px      :     0.012315
      py      :     0.008103

 11 C s       :     2.850477  s :     2.850477
      pz      :     0.903089  p :     2.603220
      px      :     0.656929
      py      :     1.043203
      dz2     :     0.075639  d :     0.318930
      dxz     :     0.033665
      dyz     :     0.121457
      dx2y2   :     0.040797
      dxy     :     0.047371

 12 O s       :     3.546720  s :     3.546720
      pz      :     1.773268  p :     4.710853
      px      :     1.455037
      py      :     1.482548
      dz2     :     0.007914  d :     0.057230
      dxz     :     0.001048
      dyz     :     0.014959
      dx2y2   :     0.019539
      dxy     :     0.013770

 13 N s       :     3.185427  s :     3.185427
      pz      :     1.445072  p :     4.030330
      px      :     1.159787
      py      :     1.425471
      dz2     :     0.011715  d :     0.061286
      dxz     :     0.012270
      dyz     :     0.007596
      dx2y2   :     0.016610
      dxy     :     0.013094

 14 H s       :     0.677790  s :     0.677790
      pz      :     0.045436  p :     0.120240
      px      :     0.030482
      py      :     0.044322

 15 O s       :     3.452271  s :     3.452271
      pz      :     1.312553  p :     4.700126
      px      :     1.780728
      py      :     1.606845
      dz2     :     0.015450  d :     0.048332
      dxz     :     0.005289
      dyz     :     0.020607
      dx2y2   :     0.004781
      dxy     :     0.002204

 16 H s       :     0.880028  s :     0.880028
      pz      :     0.020896  p :     0.039039
      px      :     0.011564
      py      :     0.006579

 17 O s       :     3.545815  s :     3.545815
      pz      :     1.463821  p :     4.720052
      px      :     1.484645
      py      :     1.771587
      dz2     :     0.026757  d :     0.056801
      dxz     :     0.014822
      dyz     :     0.013242
      dx2y2   :     0.001051
      dxy     :     0.000929

 18 H s       :     0.674802  s :     0.674802
      pz      :     0.039007  p :     0.120984
      px      :     0.028110
      py      :     0.053867



                      *****************************
                      * MAYER POPULATION ANALYSIS *
                      *****************************

  NA   - Mulliken gross atomic population
  ZA   - Total nuclear charge
  QA   - Mulliken gross atomic charge
  VA   - Mayer's total valence
  BVA  - Mayer's bonded valence
  FA   - Mayer's free valence

  ATOM       NA         ZA         QA         VA         BVA        FA
  0 C      5.1773     6.0000     0.8227     3.7092     3.7092     0.0000
  1 C      6.3260     6.0000    -0.3260     3.7538     3.7538     0.0000
  2 H      0.7147     1.0000     0.2853     0.9031     0.9031    -0.0000
  3 H      0.7258     1.0000     0.2742     0.9037     0.9037     0.0000
  4 O      8.6325     8.0000    -0.6325     1.8482     1.8482    -0.0000
  5 C      6.2402     6.0000    -0.2402     3.7598     3.7598    -0.0000
  6 H      0.8294     1.0000     0.1706     0.9425     0.9425     0.0000
  7 H      0.8310     1.0000     0.1690     0.9427     0.9427     0.0000
  8 C      6.0233     6.0000    -0.0233     3.7639     3.7639    -0.0000
  9 H      0.8453     1.0000     0.1547     0.9485     0.9485    -0.0000
 10 H      0.8390     1.0000     0.1610     0.9485     0.9485     0.0000
 11 C      5.1938     6.0000     0.8062     3.6552     3.6552    -0.0000
 12 O      8.6025     8.0000    -0.6025     1.8601     1.8601     0.0000
 13 N      7.6876     7.0000    -0.6876     2.7668     2.7668    -0.0000
 14 H      0.6282     1.0000     0.3718     0.8722     0.8722    -0.0000
 15 O      8.6379     8.0000    -0.6379     1.8387     1.8387    -0.0000
 16 H      0.8367     1.0000     0.1633     0.9412     0.9412    -0.0000
 17 O      8.6061     8.0000    -0.6061     1.8607     1.8607     0.0000
 18 H      0.6227     1.0000     0.3773     0.8693     0.8693     0.0000

  Mayer bond orders larger than 0.100000
B(  0-C ,  1-C ) :   0.9429 B(  0-C ,  4-O ) :   0.9935 B(  0-C , 17-O ) :   1.7775 
B(  1-C ,  5-C ) :   0.9501 B(  1-C ,  6-H ) :   0.9557 B(  1-C ,  7-H ) :   0.9566 
B(  2-H , 13-N ) :   0.8974 B(  3-H , 13-N ) :   0.9099 B(  4-O , 14-H ) :   0.8409 
B(  5-C ,  8-C ) :   0.9643 B(  5-C ,  9-H ) :   0.9666 B(  5-C , 10-H ) :   0.9534 
B(  8-C , 11-C ) :   0.9095 B(  8-C , 13-N ) :   0.9837 B(  8-C , 16-H ) :   0.9643 
B( 11-C , 12-O ) :   1.7737 B( 11-C , 15-O ) :   0.9830 B( 15-O , 18-H ) :   0.8384 


-------
TIMINGS
-------

Total SCF time: 0 days 0 hours 0 min 18 sec 

Total time                  ....      18.555 sec
Sum of individual times     ....      17.437 sec  ( 94.0%)

SCF preparation             ....       0.015 sec  (  0.1%)
Fock matrix formation       ....      17.371 sec  ( 93.6%)
  Startup                   ....       0.001 sec  (  0.0% of F)
  Coulomb+Exchange Fock     ....      18.477 sec  (106.4% of F)
Diagonalization             ....       0.000 sec  (  0.0%)
Density matrix formation    ....       0.004 sec  (  0.0%)
Total Energy calculation    ....       0.001 sec  (  0.0%)
Population analysis         ....       0.003 sec  (  0.0%)
Orbital Transformation      ....       0.005 sec  (  0.0%)
Orbital Orthonormalization  ....       0.000 sec  (  0.0%)
DIIS solution               ....       0.028 sec  (  0.2%)
SOSCF solution              ....       0.010 sec  (  0.1%)
Finished LeanSCF after  18.6 sec

Maximum memory used throughout the entire LEANSCF-calculation: 14.9 MB

------------------------------------------------------------------------------
                                ORCA  MP2 
------------------------------------------------------------------------------

Freezing NCore=20 chemical core electrons

----------
MP2 ENERGY (disk based algorithm)
----------

Dimension of the basis                      ...  185
Memory devoted to MP2                       ... 4096 MB   
Data format for buffers                     ... DOUBLE
Compression type for matrix containers      ... UNCOMPRESSED

-------------------------
SHARK HALF TRANSFORMATION (Exchange order)
-------------------------

Number of basis functions                   ...    185
Number of operators                         ...      1
   Operator  0:   10-  38 (p-index in (p*|q*))
   Operator  0:   10-  38 (q-index in (p*|q*)
Integral generator used                     ... SHARK
Contraction scheme used                     ... SEGMENTED CONTRACTION
MaxCore in resort                           ...   4096 MB

Half transformed integrals for op=   0      ... 2.SHARK_MNPQ0.tmp
Resorted half transformed integrals         ... 2.KAO_aa.tmp

Half trafo (segmented) done. Total time = 11.0 sec. integrals= 10.0 sec trafo=  0.9 sec

----------------------
SHARK INTEGRAL SORTING (Exchange)
----------------------

Input container                             ... 2.SHARK_MNPQ0.tmp
Output container                            ... 2.KAO_aa.tmp
Range of AO-indices                         ...    0 -  184
Range of bra indices i                      ...   10 -   38
Range of ket indices j                      ...   10 -   38
Symmetric i,j range                         ... YES
Number of (i,j) pairs generated             ...  435
Max Core memory in MB                       ...   4096

Available core memory in MB                 ...   4086.45
MB needed for one item                      ...      0.26
Fixed MB needed                             ...      0.00
Number of items                             ...       435
Number of batches                           ...         1
Items treated per batch                     ...       435
Batch   0                                   ...      0-   434 (   435)
   => Closing output file and leaving
done (  0.1 sec)

SHARK half integral transformation done. Total time = 11.2 sec.


Finished integral transformation - now doing MP2 part

OPERATOR COMBINATION   0   0: ij=( 10.. 38, 10.. 38)
  Internal MO  12
  Internal MO  15
  Internal MO  18
  Internal MO  21
  Internal MO  24
  Internal MO  27
  Internal MO  30
  Internal MO  33
  Internal MO  36
-----------------------------------------------
 MP2 CORRELATION ENERGY   :     -1.546415998 Eh
-----------------------------------------------


-------
TIMINGS
-------
Total time                :   11.328 sec
Integral trafo            :   11.176 sec ( 98.7%)
K(i,j)                    :    0.125 sec (  1.1%)
T(i,j)                    :    0.004 sec (  0.0%)

---------------------------------------
MP2 TOTAL ENERGY:     -550.083346490 Eh
---------------------------------------

Maximum memory used throughout the entire MP2-calculation: 124.2 MB

-------------------------   --------------------
FINAL SINGLE POINT ENERGY      -550.083346489535
-------------------------   --------------------


------------------------------------------------------------------------------
                              ORCA PROPERTY CALCULATIONS
------------------------------------------------------------------------------

GBWName                                 ... 2.gbw
Number of atoms                         ...     19
Number of basis functions               ...    185
Max core memory                         ...   4096 MB

Electric properties:
Dipole moment                           ... YES
Quadrupole moment                       ...  NO
Static polarizability (Dipole/Dipole)   ...  NO
Static polarizability (Dipole/Quad.)    ...  NO
Static polarizability (Quad./Quad.)     ...  NO
Static polarizability (Velocity)        ...  NO
Static hyperpolarizability              ...  NO

Atomic electric properties:
Dipole moment                           ...  NO
Quadrupole moment                       ...  NO
Static polarizability                   ...  NO

Choice of electric origin               ... Center of mass
Position of electric origin             ...    -2.508049     0.725940     0.685648

General magnetic properties:
Magnetizability                         ...  NO

EPR properties:
g-Tensor (aka g-matrix)                 ...  NO
Zero-Field splitting spin-orbit         ...  NO
Zero-field splitting spin-spin          ...  NO
Hyperfine couplings                     ...  NO (   0 nuclei)
Quadrupole couplings                    ...  NO (   0 nuclei)
Contact density                         ...  NO (   0 nuclei)

NMR properties:
Chemical shifts                         ...  NO (   0 nuclei)
Spin-rotation constants                 ...  NO (   0 nuclei)
Spin-spin couplings                     ...  NO (   0 nuclei,    0 pairs)

Choice of magnetic origin               ... GIAO
Position of magnetic origin             ...     0.000000     0.000000     0.000000

Properties with geometric perturbations:
SCF Hessian                             ...  NO
IR spectrum                             ...  NO
VCD spectrum                            ...  NO
X-ray spectroscopy properties:
SCF XES/XAS/RIXS spectra                ...  NO

SCF SOC stabilization energy            ...  NO
Diagonal Born-Oppenheimer correction    ...  NO

-------------
DIPOLE MOMENT
-------------

Method             : SCF
Type of density    : Electron Density
Multiplicity       :   1
Irrep              :   0
Energy             :  -548.5369304919518072 Eh
Basis              : AO
                                X                 Y                 Z
Electronic contribution:     -1.140328334      -5.822439497       3.062372981
Nuclear contribution   :      1.104338607       5.984615529      -3.025181055
                        -----------------------------------------
Total Dipole Moment    :     -0.035989727       0.162176032       0.037191926
                        -----------------------------------------
Magnitude (a.u.)       :      0.170233854
Magnitude (Debye)      :      0.432700070



--------------------
Rotational spectrum 
--------------------
 
Rotational constants in cm-1:             0.070749             0.035067             0.029313 
Rotational constants in MHz :          2121.002420          1051.281275           878.783720 

Dipole components along the rotational axes: 
x,y,z [a.u.] :    -0.084779    -0.086964     0.119287 
x,y,z [Debye]:    -0.215492    -0.221045     0.303202 

 

Dipole moment calculation done in   0.0 sec 

Maximum memory used throughout the entire PROP-calculation: 9.7 MB

--------------------------------
SUGGESTED CITATIONS FOR THIS RUN
--------------------------------

Below you find a list of papers that are relevant to this ORCA run
We neither can nor want to force you to cite these papers, but we appreciate if you do
You receive ORCA, which is the product of decades of hard work by many enthusiastic individuals, for free
The only thing we kindly ask in return is that you cite our papers,
We deeply appreciate it, if you show your appreciation for ORCA by not just citing the generic ORCA reference.

Please note that relegating all ORCA citations to the supporting information does *not* help us.
SI sections are not indexed - citations you put there will not count into any citation statistics
But we need these citations in order to attract the funding resources that allow us to do what we are doing

Therefore, if you are a happy ORCA user, please consider citing a few of the papers listed below in the main body of your paper

In addition to the list printed below, the program has created the file 2.bibtex that contains the list in bibtex format
You can import this file easily into all common literature databanks and citation aid programs


List of essential papers. We consider these as the minimum necessary citations

  1. Neese, F.
     Software update: the ORCA program system, version 6.0
     WIRES Comput. Molec. Sci. 2025 15(1), e70019
     doi.org/10.1002/wcms.7019

List of papers to cite with high priority. The work reported in these papers was absolutely
necessary for this run to complete.
Our perspective: the developers of density functionals and basis sets usually get cited in chemistry papers
Good! But without the algorithms to do something with them, the functionals or basis sets would not do anything.
Hence, in our opinion, the algorithm design and method developments papers are equally worthy of getting cited

  1. Neese, F.
     The SHARK Integral Generation and Digestion System
     J. Comp. Chem. 2022 44(3), 381
     doi.org/10.1002/jcc.26942

List of suggested additional citations. These are papers that are important in the 'surrounding' of 
of this run, or papers that preceded the highly important papers. If you like your results we are grateful for a citation.

  1. Neese, F.
     The ORCA program system
     WIRES Comput. Molec. Sci. 2012 2(1), 73-78
     doi.org/10.1002/wcms.81
  2. Neese, F.
     Software update: the ORCA program system, version 4.0
     WIRES Comput. Molec. Sci. 2018 8(1), 1-6
     doi.org/10.1002/wcms.1327
  3. Neese, F.; Wennmohs, F.; Becker, U.; Riplinger, C.
     The ORCA quantum chemistry program package
     J. Chem. Phys. 2020 152(22), 224108
     doi.org/10.1063/5.0004608
  4. Neese, F.
     Software update: The ORCA program system—Version 5.0
     WIRES Comput. Molec. Sci. 2022 12(1), e1606
     doi.org/10.1002/wcms.1606

List of optional additional citations

  1. Neese, F.
     Approximate second-order SCF convergence for spin unrestricted wavefunctions
     Chem. Phys. Lett. 2000 325(1-3), 93-98
     doi.org/10.1016/s0009-2614(00)00662-x

Timings for individual modules:

Sum of individual times          ...       30.597 sec (=   0.510 min)
Startup calculation              ...        0.420 sec (=   0.007 min)   1.4 %
SCF iterations                   ...       18.800 sec (=   0.313 min)  61.4 %
Property calculations            ...        0.024 sec (=   0.000 min)   0.1 %
MP2 module                       ...       11.353 sec (=   0.189 min)  37.1 %
                             ****ORCA TERMINATED NORMALLY****
TOTAL RUN TIME: 0 days 0 hours 0 minutes 30 seconds 633 msec
