13
Energy -323.5370346882
6 -4.56489679548597493408 0.50210872320617205844 -2.49007009571842186091
8 -4.47460800138770053991 1.42235425862733744218 -3.27585579080687949727
8 -3.45317861858239716355 -0.05626429975715807608 -1.92512706888163176444
6 -5.93469881655052855507 -0.11870170960164438956 -2.08346904320234571628
1 -3.75998506741149407517 -0.76244214922823994041 -1.32434914384975122026
6 -6.57508743145941298991 -0.74931603602447827139 -3.33533309263602939509
1 -6.59985096876079246897 -0.01503565337747557809 -4.14943792578669956583
7 -5.94001096764855418542 -1.08962057161926284543 -0.98569889196054716329
1 -5.98408776035626832623 -1.61788317876430953746 -3.66862907055477194262
1 -7.59353118623758316375 -1.08601416362896929790 -3.10087311837209078647
1 -6.55019821569245230819 0.73976689490543789951 -1.77293768612534674567
1 -5.51757706288355276314 -1.98101827231687721564 -1.23901788371372290065
1 -5.53801010754322753371 -0.73350484242052760298 -0.12162418839174092555
13
Energy -323.5382928729
6 -4.37527466367762674082 0.09416895974685779436 -2.07743780255571985904
8 -3.68610528834383099905 -0.13328333371542705477 -1.10569435331812937484
8 -3.80705693741944983799 0.57603133207702772456 -3.22976720759851954057
6 -5.90755921772637648814 -0.14718822874002562839 -2.13108126006510412154
1 -4.50105141001700825854 0.70208873866825993737 -3.89884533540977651356
6 -6.21026615176717911027 -1.32077615303762163634 -3.09064428284498271537
1 -5.82706354006451476835 -1.13216690733275338054 -4.10469828234624678487
7 -6.49848841686209155455 -0.41472573992992411984 -0.82270787007100365518
1 -5.73672514670636246592 -2.24051750293392082369 -2.71507016740189088821
1 -7.29535359655443471638 -1.47862854748045102760 -3.13897514291565826738
1 -6.37372676646051239402 0.76902923475563278455 -2.53674179276376587922
1 -5.97973342668760565743 -1.19451353803660498265 -0.41092951391963405960
1 -6.28731643771282211475 0.37491068595896548388 -0.20982998878948022625
13
Energy -323.5370257740
6 -4.53434278526564504830 0.45176448728494450480 -2.54915246111879678637
8 -4.43578839072315211922 1.35724969850316523612 -3.35095935449609205747
8 -3.42665164647279008037 -0.15349258702868426307 -2.02644763159837815181
6 -5.91226573202861338530 -0.09779349920530448770 -2.07358671281255579899
1 -3.74058722086725126132 -0.83636997676695001847 -1.40267233829784987442
6 -6.63264949443130102935 -0.72090781784183766145 -3.28529742878654973381
1 -6.65994144990633074599 -0.00051912511000584032 -4.11166353653497207432
7 -5.91357398783068965997 -1.04830038710442852157 -0.95837816400762776414
1 -6.09442162339601001264 -1.62049420088299300780 -3.62542209833144424280
1 -7.65407897791705682522 -1.00762658041391950370 -3.00231973821258879553
1 -6.47489712573305897791 0.79329341485227189423 -1.75491880443221082153
1 -5.54861415216900155656 -1.96434709880347901922 -1.21257683288677498012
1 -5.45790841325879672041 -0.69802732748275886365 -0.11902789848400853467
