                                 *****************
                                 * O   R   C   A *
                                 *****************

                       *****************************
                       * Geometry Optimization Run *
                       *****************************

Geometry optimization settings:
Update method            Update   .... BFGS
Choice of coordinates    CoordSys .... (2022) Redundant Internals
Initial Hessian          InHess   .... Almloef's Model
Max. no of cycles        MaxIter  .... 13000

Convergence Tolerances:
Energy Change            TolE     ....  5.0000e-06 Eh
Max. Gradient            TolMAXG  ....  3.0000e-04 Eh/bohr
RMS Gradient             TolRMSG  ....  1.0000e-04 Eh/bohr
Max. Displacement        TolMAXD  ....  4.0000e-03 bohr
RMS Displacement         TolRMSD  ....  2.0000e-03 bohr
Strict Convergence                .... True

------------------------------------------------------------------------------
                        ORCA OPTIMIZATION COORDINATE SETUP
------------------------------------------------------------------------------

The optimization will be done in redundant internal coordinates (2022)
Making redundant internal coordinates   ...  (2022 redundants) done
Evaluating the initial hessian          ...  (Almloef) done
Evaluating the coordinates              ...  done
Calculating the B-matrix                .... done
Calculating the G-matrix                .... done
The number of degrees of freedom        ....   51

    -----------------------------------------------------------------
                    Redundant Internal Coordinates


    -----------------------------------------------------------------
         Definition                    Initial Value    Approx d2E/dq
    -----------------------------------------------------------------
      1. B(O   1,C   0)                  1.2135         1.070369   
      2. B(O   2,C   0)                  1.3664         0.610387   
      3. B(C   3,C   0)                  1.5579         0.337158   
      4. B(H   4,O   2)                  0.9766         0.489205   
      5. B(C   5,C   3)                  1.5410         0.358716   
      6. B(H   6,C   5)                  1.0966         0.351472   
      7. B(N   7,C   3)                  1.4655         0.423983   
      8. B(N   7,H   4)                  2.2303         0.010000   
      9. B(H   8,C   5)                  1.1022         0.344368   
     10. B(H   9,C   5)                  1.0980         0.349698   
     11. B(H  10,C   3)                  1.1010         0.345825   
     12. B(H  11,N   7)                  1.0184         0.419499   
     13. B(H  12,N   7)                  1.0174         0.421141   
     14. A(O   1,C   0,C   3)          122.4508         0.426371   
     15. A(O   2,C   0,C   3)          116.4031         0.386097   
     16. A(O   1,C   0,O   2)          121.1417         0.471704   
     17. A(C   0,O   2,H   4)          107.1101         0.365285   
     18. A(C   0,C   3,H  10)          104.7401         0.316823   
     19. A(C   0,C   3,N   7)          117.5604         0.362577   
     20. A(C   0,C   3,C   5)          108.4432         0.354605   
     21. A(C   5,C   3,N   7)          109.6296         0.366441   
     22. A(N   7,C   3,H  10)          107.6510         0.326976   
     23. A(C   5,C   3,H  10)          108.4156         0.320042   
     24. A(H   8,C   5,H   9)          108.6849         0.287488   
     25. A(H   6,C   5,H   9)          110.0512         0.288407   
     26. A(C   3,C   5,H   6)          109.7833         0.320891   
     27. A(C   3,C   5,H   9)          109.7233         0.320625   
     28. A(H   6,C   5,H   8)          108.3718         0.287715   
     29. A(C   3,C   5,H   8)          110.2030         0.319821   
     30. A(H  11,N   7,H  12)          110.7180         0.300458   
     31. A(C   3,N   7,H  12)          113.7491         0.334930   
     32. A(C   3,N   7,H  11)          113.0809         0.334713   
     33. D(H   4,O   2,C   0,O   1)    179.2516         0.027274   
     34. D(H   4,O   2,C   0,C   3)     -1.4887         0.027274   
     35. D(N   7,C   3,C   0,O   1)   -171.2890         0.010000   
     36. D(N   7,C   3,C   0,O   2)      9.4619         0.010000   
     37. D(C   5,C   3,C   0,O   2)   -115.5333         0.010000   
     38. D(H  10,C   3,C   0,O   1)    -51.8840         0.010000   
     39. D(C   5,C   3,C   0,O   1)     63.7158         0.010000   
     40. D(H   8,C   5,C   3,H  10)   -179.6818         0.010329   
     41. D(H   8,C   5,C   3,N   7)    -62.4201         0.010329   
     42. D(H   8,C   5,C   3,C   0)     67.1316         0.010329   
     43. D(H   6,C   5,C   3,H  10)     61.0254         0.010329   
     44. D(H   6,C   5,C   3,N   7)    178.2872         0.010329   
     45. D(H   6,C   5,C   3,C   0)    -52.1611         0.010329   
     46. D(H  11,N   7,C   3,C   5)     53.1738         0.016420   
     47. D(H  11,N   7,C   3,C   0)    -71.2303         0.016420   
     48. D(H  12,N   7,C   3,H  10)    -61.6682         0.016420   
     49. D(H  12,N   7,C   3,C   5)   -179.4081         0.016420   
     50. D(H  12,N   7,C   3,C   0)     56.1879         0.016420   
     51. D(H  11,N   7,C   3,H  10)    170.9137         0.016420   
    -----------------------------------------------------------------

Number of atoms                         .... 13
Number of degrees of freedom            .... 51


         *************************************************************
         *                GEOMETRY OPTIMIZATION CYCLE   1            *
         *************************************************************
------------------------------------------------------------------------------
                             ORCA STARTUP CALCULATIONS
                           -- RI-GTO INTEGRALS CHOSEN --
------------------------------------------------------------------------------
------------------------------------------------------------------------------
                   ___                                                        
                  /   \      - P O W E R E D   B Y -                         
                 /     \                                                     
                 |  |  |   _    _      __       _____    __    __             
                 |  |  |  | |  | |    /  \     |  _  \  |  |  /  |          
                  \  \/   | |  | |   /    \    | | | |  |  | /  /          
                 / \  \   | |__| |  /  /\  \   | |_| |  |  |/  /          
                |  |  |   |  __  | /  /__\  \  |    /   |      \           
                |  |  |   | |  | | |   __   |  |    \   |  |\   \          
                \     /   | |  | | |  |  |  |  | |\  \  |  | \   \       
                 \___/    |_|  |_| |__|  |__|  |_| \__\ |__|  \__/        
                                                                              
                      - O R C A' S   B I G   F R I E N D -                    
                                      &                                       
                       - I N T E G R A L  F E E D E R -                       
                                                                              
 v1 FN, 2020, v2 2021, v3 2022-2024                                           
------------------------------------------------------------------------------


----------------------
SHARK INTEGRAL PACKAGE
----------------------

Number of atoms                             ...     13
Number of basis functions                   ...    119
Number of shells                            ...     57
Maximum angular momentum                    ...      2
Integral batch strategy                     ... SHARK/LIBINT Hybrid
RI-J (if used) integral strategy            ... SPLIT-RIJ (Revised 2003 algorithm where possible)
Printlevel                                  ...      1
Contraction scheme used                     ... SEGMENTED contraction
Prescreening option                         ... SCHWARTZ
   Thresh                                   ... 2.500e-11
   Tcut                                     ... 2.500e-12
   Tpresel                                  ... 2.500e-12 
Coulomb Range Separation                    ... NOT USED
Exchange Range Separation                   ... NOT USED
Multipole approximations                    ... NOT USED
Finite Nucleus Model                        ... NOT USED
CABS basis                                  ... NOT available
Auxiliary Coulomb fitting basis             ... AVAILABLE
   # of basis functions in Aux-J            ...    371
   # of shells in Aux-J                     ...    125
   Maximum angular momentum in Aux-J        ...      4
Auxiliary J/K fitting basis                 ... NOT available
Auxiliary Correlation fitting basis         ... NOT available
Auxiliary 'external' fitting basis          ... NOT available

Checking pre-screening integrals            ... done (  0.0 sec) Dimension = 57
   => SHARK Basis and OBASIS are compatible. Storing Pre-screening
Shell pair information
Shell pair cut-off parameter TPreSel        ...   2.5e-12
Total number of shell pairs                 ...      1653
Shell pairs after pre-screening             ...      1603
Total number of primitive shell pairs       ...      8022
Primitive shell pairs kept                  ...      5599
          la=0 lb=0:    509 shell pairs
          la=1 lb=0:    587 shell pairs
          la=1 lb=1:    184 shell pairs
          la=2 lb=0:    189 shell pairs
          la=2 lb=1:    113 shell pairs
          la=2 lb=2:     21 shell pairs

Checking whether 4 symmetric matrices of dimension 119 fit in memory
:Max Core in MB      =   4096.00
 MB in use           =      5.54
 MB left             =   4090.46
 MB needed           =      0.22
 Data fit in memory  = YES
Calculating RI/J V-Matrix + Cholesky decomp.... done (  0.0 sec)
Calculating Nuclear repulsion               ... done (  0.0 sec) ENN=    247.289118642810 Eh

Diagonalization of the overlap matrix:
Smallest eigenvalue                        ... 3.966e-03
Time for diagonalization                   ...    0.001 sec
Threshold for overlap eigenvalues          ... 1.000e-07
Number of eigenvalues below threshold      ... 0
Time for construction of square roots      ...    0.000 sec
Total time needed                          ...    0.001 sec

-------------------
DFT GRID GENERATION
-------------------

General Integration Accuracy     IntAcc      ... 4.388
Radial Grid Type                 RadialGrid  ... OptM3 with GC (2021)
Angular Grid (max. ang.)         AngularGrid ... 4 (Lebedev-302)
Angular grid pruning method      GridPruning ... 4 (adaptive)
Weight generation scheme         WeightScheme... mBecke (2022)
Basis function cutoff            BFCut       ... 1.0000e-11
Integration weight cutoff        WCut        ... 1.0000e-14
Partially contracted basis set               ... off
Rotationally invariant grid construction     ... off
Angular grids for H and He will be reduced by one unit

Total number of grid points                  ...    58935
Total number of batches                      ...      929
Average number of points per batch           ...       63
Average number of grid points per atom       ...     4533
Grids setup in   0.2 sec
Initializing property integral containers    ... done (  0.0 sec)

SHARK setup successfully completed in   0.2 seconds

Maximum memory used throughout the entire STARTUP-calculation: 24.8 MB
-------------------------------------------------------------------------------
                                 ORCA GUESS
                   Start orbitals & Density for SCF / CASSCF
-------------------------------------------------------------------------------

------------
SCF SETTINGS
------------
Hamiltonian:
 Density Functional     Method          .... DFT(GTOs)
 Exchange Functional    Exchange        .... B97(D)
 Correlation Functional Correlation     .... B97(D)
 Gradients option       PostSCFGGA      .... off
 RI-approximation to the Coulomb term is turned on
   Number of AuxJ basis functions       .... 371


General Settings:
 Integral files         IntName         .... a.goat.0.0
 Hartree-Fock type      HFTyp           .... RHF
 Total Charge           Charge          ....    0
 Multiplicity           Mult            ....    1
 Number of Electrons    NEL             ....   48
 Basis Dimension        Dim             ....  119
 Nuclear Repulsion      ENuc            ....    247.2891186428 Eh

Convergence Acceleration:
 AO-DIIS                CNVDIIS         .... on
   Start iteration      DIISMaxIt       ....    12
   Startup error        DIISStart       ....  0.200000
   # of expansion vecs  DIISMaxEq       ....     5
   Bias factor          DIISBfac        ....   1.050
   Max. coefficient     DIISMaxC        ....  10.000
 MO-DIIS                CNVKDIIS        .... off
 Trust-Rad. Augm. Hess. CNVTRAH         .... auto
   Auto Start mean grad. ratio tolernc. ....  1.125000
   Auto Start start iteration           ....    50
   Auto Start num. interpolation iter.  ....    10
   Max. Number of Micro iterations      ....    24
   Max. Number of Macro iterations      .... Maxiter - #DIIS iter
   Number of Davidson start vectors     ....     2
   Converg. threshold    (grad. norm)   ....   1.000e-05
   Grad. Scal. Fac. for Micro threshold ....   0.100
   Minimum threshold for Micro iter.    ....   1.000e-02
   NR start threshold (gradient norm)   ....   1.000e-04
   Initial trust radius                 ....   0.400
   Minimum AH scaling param. (alpha)    ....   1.000
   Maximum AH scaling param. (alpha)    .... 1000.000
   Quad. conv. algorithm                .... NR
   White noise on init. David. guess    .... on
   Maximum white noise                  ....   0.010
   Pseudo random numbers                .... off
   Inactive MOs                         .... canonical
   Orbital update algorithm             .... Taylor
   Preconditioner                       .... Diag
   Full preconditioner red. dimension   ....   250
 SOSCF                 CNVSOSCF           .... on
   Start iteration     SOSCFMaxIt         ....   150
   Startup grad/error  SOSCFStart         ....  0.003300
   Hessian update      SOSCFHessUp        .... L-BFGS
   Autom. constraints  SOSCFAutoConstrain .... off
 Level Shifting         CNVShift        .... on
   Level shift para.    LevelShift      ....    0.2500
   Turn off err/grad.   ShiftErr        ....    0.0010
 Zerner damping         CNVZerner       .... off
 Static damping         CNVDamp         .... on
   Fraction old density DampFac         ....    0.7000
   Max. Damping (<1)    DampMax         ....    0.9800
   Min. Damping (>=0)   DampMin         ....    0.0000
   Turn off err/grad.   DampErr         ....    0.1000

SCF Procedure:
 Maximum # iterations   MaxIter         ....   125
 SCF integral mode      SCFMode         .... Direct
   Integral package                     .... SHARK and LIBINT hybrid scheme
 Reset frequency        DirectResetFreq ....    20
 Integral Threshold     Thresh          ....  2.500e-11 Eh
 Primitive CutOff       TCut            ....  2.500e-12 Eh

Convergence Tolerance:
 Convergence Check Mode ConvCheckMode   .... Total+1el-Energy
 Convergence forced     ConvForced      .... 1
 Energy Change          TolE            ....  1.000e-08 Eh
 1-El. energy change                    ....  1.000e-05 Eh
 Orbital Gradient       TolG            ....  1.000e-05
 Orbital Rotation angle TolX            ....  1.000e-05
 DIIS Error             TolErr          ....  5.000e-07

------------------------------
INITIAL GUESS: MODEL POTENTIAL
------------------------------
Loading Hartree-Fock densities                     ... done
Calculating cut-offs                               ... done
Initializing the effective Hamiltonian             ... done
Setting up the integral package (SHARK)            ... done
Starting the Coulomb interaction                   ... done (   0.0 sec)
Making the grid                                    ... done (   0.0 sec)
Mapping shells                                     ... done
Starting the XC term evaluation                    ... done (   0.0 sec)
  promolecular density results
     # of electrons  =     48.000503634
     EX              =    -39.817808369
     EC              =     -2.125847176
     EX+EC           =    -41.943655546
Transforming the Hamiltonian                       ... done (   0.0 sec)
Diagonalizing the Hamiltonian                      ... done (   0.0 sec)
Back transforming the eigenvectors                 ... done (   0.0 sec)
Now organizing SCF variables                       ... done
                      ------------------
                      INITIAL GUESS DONE (   0.1 sec)
                      ------------------
             **** ENERGY FILE WAS UPDATED (a.goat.0.0.en.tmp) ****
Finished Guess after   0.1 sec
Maximum memory used throughout the entire GUESS-calculation: 9.4 MB

-------------------------------------------------------------------------------------------
                                      ORCA LEAN-SCF
                              memory conserving SCF solver
-------------------------------------------------------------------------------------------

----------------------------------------D-I-I-S--------------------------------------------
Iteration    Energy (Eh)           Delta-E    RMSDP     MaxDP     DIISErr   Damp  Time(sec)
-------------------------------------------------------------------------------------------
               ***  Starting incremental Fock matrix formation  ***
    1    -323.2560672633937884     0.00e+00  5.16e-03  1.04e-01  2.56e-01  0.700   0.2
    2    -323.3935767406796913    -1.38e-01  3.05e-03  5.58e-02  9.94e-02  0.700   0.2
                               ***Turning on AO-DIIS***
    3    -323.4315328634970683    -3.80e-02  1.11e-03  1.67e-02  2.67e-02  0.700   0.2
    4    -323.4583387802280185    -2.68e-02  1.49e-03  1.95e-02  2.32e-02  0.000   0.2
    5    -323.5217673157375202    -6.34e-02  5.34e-04  8.40e-03  1.05e-02  0.000   0.2
                              *** Initializing SOSCF ***
---------------------------------------S-O-S-C-F--------------------------------------
Iteration    Energy (Eh)           Delta-E    RMSDP     MaxDP     MaxGrad    Time(sec)
--------------------------------------------------------------------------------------
    6    -323.5224868964172629    -7.20e-04  1.91e-04  2.87e-03  3.29e-03     0.2
               *** Restarting incremental Fock matrix formation ***
    7    -323.5225416147665101    -5.47e-05  1.64e-04  2.49e-03  6.86e-04     0.2
    8    -323.5225253289744387     1.63e-05  9.32e-05  2.07e-03  2.06e-03     0.2
    9    -323.5225487026306155    -2.34e-05  6.99e-05  9.85e-04  3.95e-04     0.2
   10    -323.5225458413501656     2.86e-06  4.05e-05  5.63e-04  3.86e-04     0.2
   11    -323.5225506174664361    -4.78e-06  1.58e-05  3.12e-04  5.59e-05     0.2
   12    -323.5225504623558663     1.55e-07  9.57e-06  2.07e-04  9.83e-05     0.2
   13    -323.5225507116678045    -2.49e-07  2.63e-06  6.58e-05  1.13e-05     0.2
   14    -323.5225507069195601     4.75e-09  1.63e-06  4.58e-05  1.55e-05     0.2
                 **** Energy Check signals convergence ****

               *****************************************************
               *                     SUCCESS                       *
               *           SCF CONVERGED AFTER  14 CYCLES          *
               *****************************************************

             **** ENERGY FILE WAS UPDATED (a.goat.0.0.en.tmp) ****

----------------
TOTAL SCF ENERGY
----------------

Total Energy       :       -323.52255071463333 Eh           -8803.49617 eV

Components:
Nuclear Repulsion  :        247.28911864281008 Eh            6729.07902 eV
Electronic Energy  :       -570.81166935744341 Eh          -15532.57518 eV
One Electron Energy:       -930.76129258077549 Eh          -25327.30239 eV
Two Electron Energy:        359.94962322333208 Eh            9794.72720 eV

Virial components:
Potential Energy   :       -645.12104364334732 Eh          -17554.63606 eV
Kinetic Energy     :        321.59849292871394 Eh            8751.13989 eV
Virial Ratio       :          2.00598279478364

DFT components:
N(Alpha)           :       24.000042293584 electrons
N(Beta)            :       24.000042293584 electrons
N(Total)           :       48.000084587169 electrons
E(X)               :      -40.696127840060 Eh       
E(C)               :       -2.115159784508 Eh       
E(XC)              :      -42.811287624567 Eh       

---------------
SCF CONVERGENCE
---------------

  Last Energy change         ...   -4.7482e-09  Tolerance :   1.0000e-08
  Last MAX-Density change    ...    4.5797e-05  Tolerance :   1.0000e-07
  Last RMS-Density change    ...    1.6276e-06  Tolerance :   5.0000e-09
  Last DIIS Error            ...    3.2870e-03  Tolerance :   5.0000e-07
  Last Orbital Gradient      ...    1.5536e-05  Tolerance :   1.0000e-05
  Last Orbital Rotation      ...    1.6291e-05  Tolerance :   1.0000e-05


----------------
ORBITAL ENERGIES
----------------

  NO   OCC          E(Eh)            E(eV) 
   0   2.0000     -18.811648      -511.8910 
   1   2.0000     -18.747662      -510.1498 
   2   2.0000     -14.020886      -381.5277 
   3   2.0000     -10.028266      -272.8830 
   4   2.0000      -9.965857      -271.1847 
   5   2.0000      -9.916370      -269.8382 
   6   2.0000      -1.003758       -27.3137 
   7   2.0000      -0.925921       -25.1956 
   8   2.0000      -0.832837       -22.6626 
   9   2.0000      -0.687123       -18.6976 
  10   2.0000      -0.588607       -16.0168 
  11   2.0000      -0.541970       -14.7477 
  12   2.0000      -0.480056       -13.0630 
  13   2.0000      -0.470557       -12.8045 
  14   2.0000      -0.414116       -11.2687 
  15   2.0000      -0.390198       -10.6178 
  16   2.0000      -0.374975       -10.2036 
  17   2.0000      -0.359101        -9.7716 
  18   2.0000      -0.340914        -9.2767 
  19   2.0000      -0.324446        -8.8286 
  20   2.0000      -0.312268        -8.4972 
  21   2.0000      -0.264666        -7.2019 
  22   2.0000      -0.250626        -6.8199 
  23   2.0000      -0.198492        -5.4012 
  24   0.0000      -0.020991        -0.5712 
  25   0.0000       0.018856         0.5131 
  26   0.0000       0.087252         2.3742 
  27   0.0000       0.097677         2.6579 
  28   0.0000       0.104199         2.8354 
  29   0.0000       0.125716         3.4209 
  30   0.0000       0.140256         3.8166 
  31   0.0000       0.150608         4.0982 
  32   0.0000       0.168559         4.5867 
  33   0.0000       0.178941         4.8692 
  34   0.0000       0.206338         5.6147 
*Only the first 10 virtual orbitals were printed.
-------
TIMINGS
-------

Total SCF time: 0 days 0 hours 0 min 3 sec 

Total time                  ....       3.238 sec
Sum of individual times     ....       3.009 sec  ( 92.9%)

SCF preparation             ....       0.024 sec  (  0.7%)
Fock matrix formation       ....       2.962 sec  ( 91.5%)
  Startup                   ....       0.000 sec  (  0.0% of F)
  Split-RI-J                ....       0.756 sec  ( 25.5% of F)
  XC integration            ....       2.387 sec  ( 80.6% of F)
    Basis function eval.    ....       0.831 sec  ( 34.8% of XC)
    Density eval.           ....       0.449 sec  ( 18.8% of XC)
    XC-Functional eval.     ....       0.538 sec  ( 22.5% of XC)
    XC-Potential eval.      ....       0.497 sec  ( 20.8% of XC)
Diagonalization             ....       0.000 sec  (  0.0%)
Density matrix formation    ....       0.003 sec  (  0.1%)
Total Energy calculation    ....       0.000 sec  (  0.0%)
Population analysis         ....       0.000 sec  (  0.0%)
Orbital Transformation      ....       0.002 sec  (  0.1%)
Orbital Orthonormalization  ....       0.000 sec  (  0.0%)
DIIS solution               ....       0.010 sec  (  0.3%)
SOSCF solution              ....       0.007 sec  (  0.2%)
Finished LeanSCF after   3.2 sec

Maximum memory used throughout the entire LEANSCF-calculation: 12.9 MB



-------------------------------------------------------------------------------
                          DFT DISPERSION CORRECTION                            
-------------------------------------------------------------------------------
Active option DFTDOPT                   ...         2   
Final C6-coefficient scaling factor     ...     1.250
Final VDW-radii scaling factor          ...     1.100
Damping factor alpha                    ...    20.000
------------------------------------------------------------------------------
                         ORCA SCF GRADIENT CALCULATION
------------------------------------------------------------------------------

Nuc. rep. gradient        (SHARK) ... done (  0.0 sec)
HCore & Overlap gradient  (SHARK) ... done (  0.0 sec)
Split-RIJ-J gradient      (SHARK) ... done (  0.2 sec)
XC gradient                       ... done (  1.1 sec)
Dispersion correction             ... done (  0.0 sec)

-------------------
DISPERSION GRADIENT
-------------------

   1   C   :   -0.000217629    0.000243891    0.000349563
   2   O   :    0.000681573    0.000434376   -0.000000427
   3   O   :    0.000250748    0.000425866   -0.000244129
   4   C   :    0.000886983   -0.000899391   -0.000579480
   5   H   :   -0.000645252    0.000132115   -0.000087557
   6   C   :   -0.000178941    0.000398721    0.000367320
   7   H   :   -0.000596085   -0.001279503    0.000235573
   8   N   :    0.001007092    0.000873255   -0.000138240
   9   H   :   -0.001169229    0.000577484   -0.000632795
  10   H   :    0.000696228    0.000135383   -0.000965388
  11   H   :   -0.000018712   -0.000028425    0.000143097
  12   H   :   -0.000279054   -0.000367343    0.000980073
  13   H   :   -0.000417720   -0.000646430    0.000572391

Difference to translation invariance:
           :   -0.0000000000   -0.0000000000    0.0000000000

Difference to rotation invariance:
           :   -0.0000000000    0.0000000000    0.0000000000

Norm of the Dispersion gradient    ...    0.0036578443
RMS gradient                       ...    0.0005857239
MAX gradient                       ...    0.0012795030

------------------
CARTESIAN GRADIENT
------------------

   1   C   :    0.000008869   -0.000032698   -0.000001534
   2   O   :   -0.000015327    0.000019186   -0.000005788
   3   O   :    0.000028990   -0.000014729    0.000015448
   4   C   :   -0.000033468    0.000007653   -0.000019406
   5   H   :   -0.000006144    0.000005806   -0.000002309
   6   C   :    0.000024315   -0.000007945    0.000044974
   7   H   :   -0.000003244   -0.000009801   -0.000006689
   8   N   :   -0.000013439   -0.000033371    0.000013958
   9   H   :    0.000006812    0.000022682   -0.000024431
  10   H   :   -0.000003855    0.000017910   -0.000008253
  11   H   :    0.000010905   -0.000000286    0.000009539
  12   H   :    0.000001220   -0.000000702   -0.000007528
  13   H   :   -0.000005633    0.000026295   -0.000007978

Difference to translation invariance:
           :    0.0000000000    0.0000000000    0.0000000000

Difference to rotation invariance:
           :    0.0000735354   -0.0000726815   -0.0000728102

Norm of the Cartesian gradient     ...    0.0001079309
RMS gradient                       ...    0.0000172828
MAX gradient                       ...    0.0000449736

-------
TIMINGS
-------

Total SCF gradient time     ....        1.367 sec

Densities                   ....       0.000 sec  (  0.0%)
One electron gradient       ....       0.041 sec  (  3.0%)
RI-J Coulomb gradient       ....       0.231 sec  ( 16.9%)
XC gradient                 ....       1.095 sec  ( 80.1%)

Maximum memory used throughout the entire SCFGRAD-calculation: 17.0 MB
------------------------------------------------------------------------------
                         ORCA GEOMETRY RELAXATION STEP
------------------------------------------------------------------------------

Reading the OPT-File                    .... done

---------------------------------------------
FINAL SINGLE POINT ENERGY      -323.537034688188
---------------------------------------------

Getting information on internals        .... done
Copying old internal coords+grads       .... done
Making the new internal coordinates     .... (2022 redundants) done
Validating the new internal coordinates .... (2022 redundants) done
Calculating the B-matrix                .... done
Calculating the G,G- and P matrices     .... done
Transforming gradient to internals      .... done
Projecting the internal gradient        .... done
Number of atoms                         ....  13
Number of internal coordinates          ....  51
Current Energy                          ....  -323.537034688 Eh
Current gradient norm                   ....     0.000107931 Eh/bohr
Maximum allowed component of the step   ....  0.300
Current trust radius                    ....  0.300
Evaluating the initial hessian          ....  (Almloef) done
Projecting the Hessian                  .... done
Forming the augmented Hessian           .... done
Diagonalizing the augmented Hessian     .... done
Last element of RFO vector              ....  0.999999217
Lowest eigenvalues of augmented Hessian:
 -0.000000044  0.010000000  0.010328753  0.014934010  0.016420165
Length of the computed step             ....  0.001251186
The final length of the internal step   ....  0.001251186
Converting the step to Cartesian space:
 Initial RMS(Int)=    0.0001752011
Transforming coordinates:
 Iter   0:  RMS(Cart)=    0.0002072760 RMS(Int)=    0.0001751996
done
Storing new coordinates                 .... done

                                .--------------------.
          ----------------------|Geometry convergence|-------------------------
          Item                value                   Tolerance       Converged
          ---------------------------------------------------------------------
          RMS gradient        0.0000127458            0.0001000000      YES
          MAX gradient        0.0000405819            0.0003000000      YES
          RMS step            0.0001752011            0.0020000000      YES
          MAX step            0.0004345173            0.0040000000      YES
          -------------------------------------------------------------------------
          ........................................................
          Max(Bonds)      0.0000      Max(Angles)    0.01
          Max(Dihed)        0.02      Max(Improp)    0.00
          ---------------------------------------------------------------------

			-----------------------
			     GOAT ITER   1       
			-----------------------

	Minimum found after 1 optimization iterations! E = -323.537035

	No previous minimum found yet, adding first to a.goat.0.0.ensembleen.tmp.

	Number of GOAT steps per global cycle: 23

	Current MaxEn         : 39.00 kcal/mol
	Current Temperature   : 2903.97 K
	Current UphillGradComp: 1.00

Geometry step timings:
Preparation and reading OPT file:      0.000 s ( 2.446 %)
Internal coordinates            :      0.000 s ( 1.529 %)
B/P matrices and projection     :      0.000 s (33.486 %)
Hessian update/contruction      :      0.000 s ( 9.939 %)
Making the step                 :      0.000 s (26.911 %)
Converting the step to Cartesian:      0.000 s ( 3.517 %)
Storing new data                :      0.000 s ( 1.988 %)
Checking convergence            :      0.000 s ( 1.376 %)
GOAT stuff                      :      0.000 s (15.291 %)
Final printing                  :      0.000 s ( 3.517 %)
Total time                      :      0.001 s

Time for energy+gradient        :      5.050 s
Time for complete geometry iter :      5.066 s

         *************************************************************
         *                GEOMETRY OPTIMIZATION CYCLE   2            *
         *************************************************************
---------------------------------
CARTESIAN COORDINATES (ANGSTROEM)
---------------------------------
  C     -4.564897    0.502109   -2.490070
  O     -4.474608    1.422354   -3.275856
  O     -3.453179   -0.056264   -1.925127
  C     -5.934699   -0.118702   -2.083469
  H     -3.759985   -0.762442   -1.324349
  C     -6.575087   -0.749316   -3.335333
  H     -6.599851   -0.015036   -4.149438
  N     -5.940011   -1.089621   -0.985699
  H     -5.984088   -1.617883   -3.668629
  H     -7.593531   -1.086014   -3.100873
  H     -6.550198    0.739767   -1.772938
  H     -5.517577   -1.981018   -1.239018
  H     -5.538010   -0.733505   -0.121624

----------------------------
CARTESIAN COORDINATES (A.U.)
----------------------------
  NO LB      ZA    FRAG     MASS         X           Y           Z
   0 C     6.0000    1    12.011   -8.626405    0.948848   -4.705551
   1 O     8.0000    1    15.999   -8.455784    2.687860   -6.190470
   2 O     8.0000    1    15.999   -6.525562   -0.106324   -3.637963
   3 C     6.0000    1    12.011  -11.214955   -0.224314   -3.937186
   4 H     1.0000    1     1.008   -7.105342   -1.440807   -2.502657
   5 C     6.0000    1    12.011  -12.425115   -1.416002   -6.302866
   6 H     1.0000    1     1.008  -12.471911   -0.028413   -7.841301
   7 N     7.0000    1    14.007  -11.224994   -2.059084   -1.862701
   8 H     1.0000    1     1.008  -11.308287   -3.057356   -6.932704
   9 H     1.0000    1     1.008  -14.349694   -2.052269   -5.859801
  10 H     1.0000    1     1.008  -12.378081    1.397957   -3.350367
  11 H     1.0000    1     1.008  -10.426710   -3.743582   -2.341404
  12 H     1.0000    1     1.008  -10.465322   -1.386123   -0.229836

----------------------------------------------
CARTESIAN COORDINATES OF FRAGMENTS (ANGSTROEM)
----------------------------------------------

 FRAGMENT 1 
  C    -4.564897    0.502109   -2.490070
  O    -4.474608    1.422354   -3.275856
  O    -3.453179   -0.056264   -1.925127
  C    -5.934699   -0.118702   -2.083469
  H    -3.759985   -0.762442   -1.324349
  C    -6.575087   -0.749316   -3.335333
  H    -6.599851   -0.015036   -4.149438
  N    -5.940011   -1.089621   -0.985699
  H    -5.984088   -1.617883   -3.668629
  H    -7.593531   -1.086014   -3.100873
  H    -6.550198    0.739767   -1.772938
  H    -5.517577   -1.981018   -1.239018
  H    -5.538010   -0.733505   -0.121624

--------------------------------
INTERNAL COORDINATES (ANGSTROEM)
--------------------------------
 C      0   0   0     0.000000000000     0.00000000     0.00000000
 O      1   0   0     1.213450893282     0.00000000     0.00000000
 O      1   2   0     1.366330253344   121.13994574     0.00000000
 C      1   2   3     1.557911289613   122.45472023   180.81057765
 H      3   1   2     0.976602000475   107.11247840   179.26945357
 C      4   1   2     1.541082608123   108.44668620    63.70566067
 H      6   4   1     1.096607310061   109.78215575   307.85801652
 N      4   1   2     1.465541183498   117.56030523   188.69866571
 H      6   4   1     1.102168635731   110.20008334    67.15600969
 H      6   4   1     1.097982144805   109.72236861   186.78924296
 H      4   1   2     1.101016611590   104.74009450   308.10712377
 H      8   4   1     1.018435455140   113.08157355   288.75574651
 H      8   4   1     1.017373184950   113.75689419    56.17787665

---------------------------
INTERNAL COORDINATES (A.U.)
---------------------------
 C      0   0   0     0.000000000000     0.00000000     0.00000000
 O      1   0   0     2.293089865266     0.00000000     0.00000000
 O      1   2   0     2.581989987311   121.13994574     0.00000000
 C      1   2   3     2.944025678312   122.45472023   180.81057765
 H      3   1   2     1.845510322738   107.11247840   179.26945357
 C      4   1   2     2.912224079102   108.44668620    63.70566067
 H      6   4   1     2.072287492471   109.78215575   307.85801652
 N      4   1   2     2.769471474794   117.56030523   188.69866571
 H      6   4   1     2.082796874928   110.20008334    67.15600969
 H      6   4   1     2.074885553617   109.72236861   186.78924296
 H      4   1   2     2.080619864803   104.74009450   308.10712377
 H      8   4   1     1.924564095291   113.08157355   288.75574651
 H      8   4   1     1.922556695551   113.75689419    56.17787665

------------------------------------------------------------------------------
                   ___                                                        
                  /   \      - P O W E R E D   B Y -                         
                 /     \                                                     
                 |  |  |   _    _      __       _____    __    __             
                 |  |  |  | |  | |    /  \     |  _  \  |  |  /  |          
                  \  \/   | |  | |   /    \    | | | |  |  | /  /          
                 / \  \   | |__| |  /  /\  \   | |_| |  |  |/  /          
                |  |  |   |  __  | /  /__\  \  |    /   |      \           
                |  |  |   | |  | | |   __   |  |    \   |  |\   \          
                \     /   | |  | | |  |  |  |  | |\  \  |  | \   \       
                 \___/    |_|  |_| |__|  |__|  |_| \__\ |__|  \__/        
                                                                              
                      - O R C A' S   B I G   F R I E N D -                    
                                      &                                       
                       - I N T E G R A L  F E E D E R -                       
                                                                              
 v1 FN, 2020, v2 2021, v3 2022-2024                                           
------------------------------------------------------------------------------


----------------------
SHARK INTEGRAL PACKAGE
----------------------

Number of atoms                             ...     13
Number of basis functions                   ...    119
Number of shells                            ...     57
Maximum angular momentum                    ...      2
Integral batch strategy                     ... SHARK/LIBINT Hybrid
RI-J (if used) integral strategy            ... SPLIT-RIJ (Revised 2003 algorithm where possible)
Printlevel                                  ...      1
Contraction scheme used                     ... SEGMENTED contraction
Prescreening option                         ... SCHWARTZ
   Thresh                                   ... 2.500e-11
   Tcut                                     ... 2.500e-12
   Tpresel                                  ... 2.500e-12 
Coulomb Range Separation                    ... NOT USED
Exchange Range Separation                   ... NOT USED
Multipole approximations                    ... NOT USED
Finite Nucleus Model                        ... NOT USED
CABS basis                                  ... NOT available
Auxiliary Coulomb fitting basis             ... AVAILABLE
   # of basis functions in Aux-J            ...    371
   # of shells in Aux-J                     ...    125
   Maximum angular momentum in Aux-J        ...      4
Auxiliary J/K fitting basis                 ... NOT available
Auxiliary Correlation fitting basis         ... NOT available
Auxiliary 'external' fitting basis          ... NOT available

Checking pre-screening integrals            ... done (  0.0 sec) Dimension = 57
   => SHARK Basis and OBASIS are compatible. Storing Pre-screening
Shell pair information
Shell pair cut-off parameter TPreSel        ...   2.5e-12
Total number of shell pairs                 ...      1653
Shell pairs after pre-screening             ...      1603
Total number of primitive shell pairs       ...      8022
Primitive shell pairs kept                  ...      5599
          la=0 lb=0:    509 shell pairs
          la=1 lb=0:    587 shell pairs
          la=1 lb=1:    184 shell pairs
          la=2 lb=0:    189 shell pairs
          la=2 lb=1:    113 shell pairs
          la=2 lb=2:     21 shell pairs

Checking whether 4 symmetric matrices of dimension 119 fit in memory
:Max Core in MB      =   4096.00
 MB in use           =      5.54
 MB left             =   4090.46
 MB needed           =      0.22
 Data fit in memory  = YES
Calculating RI/J V-Matrix + Cholesky decomp.... done (  0.0 sec)
Calculating Nuclear repulsion               ... done (  0.0 sec) ENN=    247.289725776697 Eh

Diagonalization of the overlap matrix:
Smallest eigenvalue                        ... 3.966e-03
Time for diagonalization                   ...    0.001 sec
Threshold for overlap eigenvalues          ... 1.000e-07
Number of eigenvalues below threshold      ... 0
Time for construction of square roots      ...    0.000 sec
Total time needed                          ...    0.001 sec

-------------------
DFT GRID GENERATION
-------------------

General Integration Accuracy     IntAcc      ... 4.388
Radial Grid Type                 RadialGrid  ... OptM3 with GC (2021)
Angular Grid (max. ang.)         AngularGrid ... 4 (Lebedev-302)
Angular grid pruning method      GridPruning ... 4 (adaptive)
Weight generation scheme         WeightScheme... mBecke (2022)
Basis function cutoff            BFCut       ... 1.0000e-11
Integration weight cutoff        WCut        ... 1.0000e-14
Partially contracted basis set               ... off
Rotationally invariant grid construction     ... off
Angular grids for H and He will be reduced by one unit

Total number of grid points                  ...    58935
Total number of batches                      ...      929
Average number of points per batch           ...       63
Average number of grid points per atom       ...     4533
Grids setup in   0.2 sec
Initializing property integral containers    ... done (  0.0 sec)

SHARK setup successfully completed in   0.2 seconds

Maximum memory used throughout the entire STARTUP-calculation: 24.8 MB
Loading Hartree-Fock densities                     ... done
Calculating cut-offs                               ... done
Initializing the effective Hamiltonian             ... done
Setting up the integral package (SHARK)            ... done
Starting the Coulomb interaction                   ... done (   0.0 sec)
Making the grid                                    ... done (   0.0 sec)
Mapping shells                                     ... done
Starting the XC term evaluation                    ... done (   0.1 sec)
  promolecular density results
     # of electrons  =     48.000503646
     EX              =    -39.817810123
     EC              =     -2.125847354
     EX+EC           =    -41.943657477
Transforming the Hamiltonian                       ... done (   0.0 sec)
Diagonalizing the Hamiltonian                      ... done (   0.0 sec)
Back transforming the eigenvectors                 ... done (   0.0 sec)
Now organizing SCF variables                       ... done
             **** ENERGY FILE WAS UPDATED (a.goat.0.0.en.tmp) ****
Finished Guess after   0.1 sec
Maximum memory used throughout the entire GUESS-calculation: 9.4 MB
----------------------------------------D-I-I-S--------------------------------------------
Iteration    Energy (Eh)           Delta-E    RMSDP     MaxDP     DIISErr   Damp  Time(sec)
-------------------------------------------------------------------------------------------
               ***  Starting incremental Fock matrix formation  ***
    1    -323.2560718507245383     0.00e+00  5.16e-03  1.04e-01  2.56e-01  0.700   0.2
    2    -323.3935787505238295    -1.38e-01  3.05e-03  5.58e-02  9.94e-02  0.700   0.2
                               ***Turning on AO-DIIS***
    3    -323.4315345213373121    -3.80e-02  1.11e-03  1.67e-02  2.66e-02  0.700   0.2
    4    -323.4583398969385826    -2.68e-02  1.49e-03  1.95e-02  2.32e-02  0.000   0.2
    5    -323.5217672372345987    -6.34e-02  5.34e-04  8.40e-03  1.05e-02  0.000   0.2
                              *** Initializing SOSCF ***
---------------------------------------S-O-S-C-F--------------------------------------
Iteration    Energy (Eh)           Delta-E    RMSDP     MaxDP     MaxGrad    Time(sec)
--------------------------------------------------------------------------------------
    6    -323.5224867940356717    -7.20e-04  1.91e-04  2.87e-03  3.29e-03     0.2
               *** Restarting incremental Fock matrix formation ***
    7    -323.5225415096234656    -5.47e-05  1.64e-04  2.49e-03  6.86e-04     0.2
    8    -323.5225252253470671     1.63e-05  9.32e-05  2.07e-03  2.06e-03     0.2
    9    -323.5225485969609736    -2.34e-05  6.98e-05  9.85e-04  3.95e-04     0.2
   10    -323.5225457365725106     2.86e-06  4.05e-05  5.63e-04  3.86e-04     0.2
   11    -323.5225505116477507    -4.78e-06  1.58e-05  3.12e-04  5.59e-05     0.2
   12    -323.5225503565986855     1.55e-07  9.57e-06  2.07e-04  9.83e-05     0.2
   13    -323.5225506058138762    -2.49e-07  2.63e-06  6.58e-05  1.13e-05     0.2
   14    -323.5225506010825711     4.73e-09  1.63e-06  4.58e-05  1.55e-05     0.2
                 **** Energy Check signals convergence ****

               *****************************************************
               *                     SUCCESS                       *
               *           SCF CONVERGED AFTER  14 CYCLES          *
               *****************************************************

             **** ENERGY FILE WAS UPDATED (a.goat.0.0.en.tmp) ****

----------------
TOTAL SCF ENERGY
----------------

Total Energy       :       -323.52255060881737 Eh           -8803.49616 eV

Components:
Nuclear Repulsion  :        247.28972577669663 Eh            6729.09554 eV
Electronic Energy  :       -570.81227638551400 Eh          -15532.59170 eV
One Electron Energy:       -930.76253282129721 Eh          -25327.33613 eV
Two Electron Energy:        359.95025643578322 Eh            9794.74443 eV

Virial components:
Potential Energy   :       -645.12103384263651 Eh          -17554.63579 eV
Kinetic Energy     :        321.59848323381919 Eh            8751.13963 eV
Virial Ratio       :          2.00598282478092

DFT components:
N(Alpha)           :       24.000042296740 electrons
N(Beta)            :       24.000042296740 electrons
N(Total)           :       48.000084593481 electrons
E(X)               :      -40.696127392762 Eh       
E(C)               :       -2.115160276901 Eh       
E(XC)              :      -42.811287669663 Eh       

---------------
SCF CONVERGENCE
---------------

  Last Energy change         ...   -4.7313e-09  Tolerance :   1.0000e-08
  Last MAX-Density change    ...    4.5784e-05  Tolerance :   1.0000e-07
  Last RMS-Density change    ...    1.6273e-06  Tolerance :   5.0000e-09
  Last DIIS Error            ...    3.2871e-03  Tolerance :   5.0000e-07
  Last Orbital Gradient      ...    1.5539e-05  Tolerance :   1.0000e-05
  Last Orbital Rotation      ...    1.6286e-05  Tolerance :   1.0000e-05


Total SCF time: 0 days 0 hours 0 min 3 sec 
Finished LeanSCF after   3.2 sec

Maximum memory used throughout the entire LEANSCF-calculation: 12.9 MB



-------------------------------------------------------------------------------
                          DFT DISPERSION CORRECTION                            
-------------------------------------------------------------------------------
------------------------------------------------------------------------------
                         ORCA SCF GRADIENT CALCULATION
------------------------------------------------------------------------------

Nuc. rep. gradient        (SHARK) ... done (  0.0 sec)
HCore & Overlap gradient  (SHARK) ... done (  0.0 sec)
Split-RIJ-J gradient      (SHARK) ... done (  0.2 sec)
XC gradient                       ... done (  1.1 sec)
Dispersion correction             ... done (  0.0 sec)

-------------------
DISPERSION GRADIENT
-------------------

   1   C   :   -0.000217876    0.000243740    0.000349415
   2   O   :    0.000681564    0.000434461   -0.000000408
   3   O   :    0.000250708    0.000425815   -0.000244004
   4   C   :    0.000887012   -0.000899607   -0.000579474
   5   H   :   -0.000645122    0.000132354   -0.000087473
   6   C   :   -0.000178891    0.000398614    0.000367555
   7   H   :   -0.000596211   -0.001279672    0.000235990
   8   N   :    0.001007178    0.000873402   -0.000138234
   9   H   :   -0.001169102    0.000577888   -0.000633486
  10   H   :    0.000696268    0.000135176   -0.000965372
  11   H   :   -0.000018578   -0.000028519    0.000143274
  12   H   :   -0.000279204   -0.000367385    0.000980129
  13   H   :   -0.000417745   -0.000646268    0.000572089

Difference to translation invariance:
           :   -0.0000000000   -0.0000000000    0.0000000000

Difference to rotation invariance:
           :   -0.0000000000   -0.0000000000    0.0000000000

Norm of the Dispersion gradient    ...    0.0036581470
RMS gradient                       ...    0.0005857723
MAX gradient                       ...    0.0012796720

------------------
CARTESIAN GRADIENT
------------------

   1   C   :    0.000004479    0.000016291    0.000031349
   2   O   :   -0.000004331   -0.000007922   -0.000010228
   3   O   :    0.000014388   -0.000010734   -0.000003597
   4   C   :   -0.000016972   -0.000000703   -0.000023512
   5   H   :   -0.000004532   -0.000001920   -0.000000165
   6   C   :    0.000012615   -0.000008766    0.000030632
   7   H   :   -0.000001935   -0.000001797   -0.000006873
   8   N   :   -0.000012672   -0.000026933    0.000009215
   9   H   :    0.000005061    0.000012305   -0.000017034
  10   H   :   -0.000004281    0.000011793   -0.000007238
  11   H   :    0.000010526    0.000002679    0.000006837
  12   H   :    0.000001298    0.000000077   -0.000003555
  13   H   :   -0.000003644    0.000015629   -0.000005831

Difference to translation invariance:
           :   -0.0000000000   -0.0000000000   -0.0000000000

Difference to rotation invariance:
           :    0.0000725214   -0.0000726565   -0.0000721463

Norm of the Cartesian gradient     ...    0.0000774726
RMS gradient                       ...    0.0000124055
MAX gradient                       ...    0.0000313487

-------
TIMINGS
-------

Total SCF gradient time     ....        1.371 sec

Densities                   ....       0.000 sec  (  0.0%)
One electron gradient       ....       0.040 sec  (  2.9%)
RI-J Coulomb gradient       ....       0.230 sec  ( 16.8%)
XC gradient                 ....       1.100 sec  ( 80.3%)

Maximum memory used throughout the entire SCFGRAD-calculation: 17.0 MB
------------------------------------------------------------------------------
                         ORCA GEOMETRY RELAXATION STEP
------------------------------------------------------------------------------

Reading the OPT-File                    .... done

---------------------------------------------
FINAL SINGLE POINT ENERGY      -323.537034716506
---------------------------------------------

Getting information on internals        .... done
Copying old internal coords+grads       .... done
Making the new internal coordinates     .... (2022 redundants) done
Validating the new internal coordinates .... (2022 redundants) done
Calculating the B-matrix                .... done
Calculating the G,G- and P matrices     .... done
Transforming gradient to internals      .... done
Projecting the internal gradient        .... done
Number of atoms                         ....  13
Number of internal coordinates          ....  51
Current Energy                          ....  -323.537034717 Eh
Current gradient norm                   ....     0.000077473 Eh/bohr
Maximum allowed component of the step   ....  0.300
Current trust radius                    ....  0.300
Updating the Hessian (BFGS)             .... done
Making initial random step              .... (random uniform) done
Converting the step to Cartesian space:
 Initial RMS(Int)=    0.0438170607
Transforming coordinates:
 Iter   0:  RMS(Cart)=    0.0658228721 RMS(Int)=    1.2359736749
 Iter   5:  RMS(Cart)=    0.0000002655 RMS(Int)=    0.0000002487
Imposing constraints:
 Iter   0:  RMS(Cart)=    0.0018225532 RMS(Int)=    0.0001438242
 Iter   5:  RMS(Cart)=    0.0000000280 RMS(Int)=    0.0000000021
CONVERGED
done
Storing new coordinates                 .... done
Current trust radius                    ....     0.3000
Energy difference                       ....     0.0000 kcal/mol
Maximum difference                      ....     0.3900 kcal/mol
New trust radius                        ....     0.4500

                                .--------------------.
          ----------------------|Geometry convergence|-------------------------
          Item                value                   Tolerance       Converged
          ---------------------------------------------------------------------
          Energy change      -0.0000000283            0.0000050000      YES
          RMS gradient        0.0000075056            0.0001000000      YES
          MAX gradient        0.0000268434            0.0003000000      YES
          RMS step            0.0438170607            0.0020000000      NO
          MAX step            0.0865689551            0.0040000000      NO
          -------------------------------------------------------------------------
          ........................................................
          Max(Bonds)      0.0286      Max(Angles)    4.57
          Max(Dihed)        4.96      Max(Improp)    0.00
          ---------------------------------------------------------------------

Geometry step timings:
Preparation and reading OPT file:      0.000 s ( 2.586 %)
Internal coordinates            :      0.000 s ( 1.940 %)
B/P matrices and projection     :      0.000 s (44.828 %)
Hessian update/contruction      :      0.000 s (19.397 %)
Making the step                 :      0.000 s (10.776 %)
Converting the step to Cartesian:      0.000 s (12.069 %)
Storing new data                :      0.000 s ( 2.371 %)
Checking convergence            :      0.000 s ( 3.017 %)
GOAT stuff                      :      0.000 s ( 0.216 %)
Final printing                  :      0.000 s ( 2.802 %)
Total time                      :      0.000 s

Time for energy+gradient        :      5.007 s
Time for complete geometry iter :      5.018 s

         *************************************************************
         *                GEOMETRY OPTIMIZATION CYCLE   3            *
         *************************************************************
---------------------------------
CARTESIAN COORDINATES (ANGSTROEM)
---------------------------------
  C     -4.594047    0.482083   -2.480482
  O     -4.490582    1.393821   -3.274517
  O     -3.452424   -0.101688   -2.008501
  C     -5.962349   -0.125972   -2.050242
  H     -3.747044   -0.762442   -1.352487
  C     -6.569589   -0.734275   -3.329368
  H     -6.591378   -0.021399   -4.162364
  N     -5.949218   -1.090868   -0.947239
  H     -5.888749   -1.552061   -3.616521
  H     -7.603727   -1.075690   -3.189511
  H     -6.584336    0.724598   -1.731024
  H     -5.536660   -1.982429   -1.215800
  H     -5.515619   -0.699248   -0.114368

----------------------------
CARTESIAN COORDINATES (A.U.)
----------------------------
  NO LB      ZA    FRAG     MASS         X           Y           Z
   0 C     6.0000    1    12.011   -8.681490    0.911005   -4.687431
   1 O     8.0000    1    15.999   -8.485969    2.633940   -6.187940
   2 O     8.0000    1    15.999   -6.524135   -0.192163   -3.795517
   3 C     6.0000    1    12.011  -11.267206   -0.238053   -3.874396
   4 H     1.0000    1     1.008   -7.080887   -1.440807   -2.555830
   5 C     6.0000    1    12.011  -12.414725   -1.387578   -6.291594
   6 H     1.0000    1     1.008  -12.455899   -0.040439   -7.865727
   7 N     7.0000    1    14.007  -11.242393   -2.061441   -1.790023
   8 H     1.0000    1     1.008  -11.128122   -2.932971   -6.834233
   9 H     1.0000    1     1.008  -14.368962   -2.032759   -6.027302
  10 H     1.0000    1     1.008  -12.442591    1.369291   -3.271160
  11 H     1.0000    1     1.008  -10.462771   -3.746248   -2.297529
  12 H     1.0000    1     1.008  -10.423010   -1.321387   -0.216124

----------------------------------------------
CARTESIAN COORDINATES OF FRAGMENTS (ANGSTROEM)
----------------------------------------------

 FRAGMENT 1 
  C    -4.594047    0.482083   -2.480482
  O    -4.490582    1.393821   -3.274517
  O    -3.452424   -0.101688   -2.008501
  C    -5.962349   -0.125972   -2.050242
  H    -3.747044   -0.762442   -1.352487
  C    -6.569589   -0.734275   -3.329368
  H    -6.591378   -0.021399   -4.162364
  N    -5.949218   -1.090868   -0.947239
  H    -5.888749   -1.552061   -3.616521
  H    -7.603727   -1.075690   -3.189511
  H    -6.584336    0.724598   -1.731024
  H    -5.536660   -1.982429   -1.215800
  H    -5.515619   -0.699248   -0.114368

--------------------------------
INTERNAL COORDINATES (ANGSTROEM)
--------------------------------
 C      0   0   0     0.000000000000     0.00000000     0.00000000
 O      1   0   0     1.213450893415     0.00000000     0.00000000
 O      1   2   0     1.366330247874   118.41273852     0.00000000
 C      1   2   3     1.557911284138   123.28856344   184.60680910
 H      3   1   2     0.976602002553   105.60772269   176.59669584
 C      4   1   2     1.541082608060   105.71891700    63.29183538
 H      6   4   1     1.096607310026   112.44029105   308.13949802
 N      4   1   2     1.465541182558   117.19041592   188.37557653
 H      6   4   1     1.102168636277   105.40963993    64.67940505
 H      6   4   1     1.097982144549   112.83860773   187.95028432
 H      4   1   2     1.101016611670   105.94495410   307.86423889
 H      8   4   1     1.018435455074   112.42852513   288.52813307
 H      8   4   1     1.017373185318   111.50110148    55.73419325

---------------------------
INTERNAL COORDINATES (A.U.)
---------------------------
 C      0   0   0     0.000000000000     0.00000000     0.00000000
 O      1   0   0     2.293089865517     0.00000000     0.00000000
 O      1   2   0     2.581989976974   118.41273852     0.00000000
 C      1   2   3     2.944025667966   123.28856344   184.60680910
 H      3   1   2     1.845510326664   105.60772269   176.59669584
 C      4   1   2     2.912224078982   105.71891700    63.29183538
 H      6   4   1     2.072287492406   112.44029105   308.13949802
 N      4   1   2     2.769471473019   117.19041592   188.37557653
 H      6   4   1     2.082796875962   105.40963993    64.67940505
 H      6   4   1     2.074885553133   112.83860773   187.95028432
 H      4   1   2     2.080619864954   105.94495410   307.86423889
 H      8   4   1     1.924564095166   112.42852513   288.52813307
 H      8   4   1     1.922556696247   111.50110148    55.73419325

------------------------------------------------------------------------------
                   ___                                                        
                  /   \      - P O W E R E D   B Y -                         
                 /     \                                                     
                 |  |  |   _    _      __       _____    __    __             
                 |  |  |  | |  | |    /  \     |  _  \  |  |  /  |          
                  \  \/   | |  | |   /    \    | | | |  |  | /  /          
                 / \  \   | |__| |  /  /\  \   | |_| |  |  |/  /          
                |  |  |   |  __  | /  /__\  \  |    /   |      \           
                |  |  |   | |  | | |   __   |  |    \   |  |\   \          
                \     /   | |  | | |  |  |  |  | |\  \  |  | \   \       
                 \___/    |_|  |_| |__|  |__|  |_| \__\ |__|  \__/        
                                                                              
                      - O R C A' S   B I G   F R I E N D -                    
                                      &                                       
                       - I N T E G R A L  F E E D E R -                       
                                                                              
 v1 FN, 2020, v2 2021, v3 2022-2024                                           
------------------------------------------------------------------------------


----------------------
SHARK INTEGRAL PACKAGE
----------------------

Number of atoms                             ...     13
Number of basis functions                   ...    119
Number of shells                            ...     57
Maximum angular momentum                    ...      2
Integral batch strategy                     ... SHARK/LIBINT Hybrid
RI-J (if used) integral strategy            ... SPLIT-RIJ (Revised 2003 algorithm where possible)
Printlevel                                  ...      1
Contraction scheme used                     ... SEGMENTED contraction
Prescreening option                         ... SCHWARTZ
   Thresh                                   ... 2.500e-11
   Tcut                                     ... 2.500e-12
   Tpresel                                  ... 2.500e-12 
Coulomb Range Separation                    ... NOT USED
Exchange Range Separation                   ... NOT USED
Multipole approximations                    ... NOT USED
Finite Nucleus Model                        ... NOT USED
CABS basis                                  ... NOT available
Auxiliary Coulomb fitting basis             ... AVAILABLE
   # of basis functions in Aux-J            ...    371
   # of shells in Aux-J                     ...    125
   Maximum angular momentum in Aux-J        ...      4
Auxiliary J/K fitting basis                 ... NOT available
Auxiliary Correlation fitting basis         ... NOT available
Auxiliary 'external' fitting basis          ... NOT available

Checking pre-screening integrals            ... done (  0.0 sec) Dimension = 57
   => SHARK Basis and OBASIS are compatible. Storing Pre-screening
Shell pair information
Shell pair cut-off parameter TPreSel        ...   2.5e-12
Total number of shell pairs                 ...      1653
Shell pairs after pre-screening             ...      1604
Total number of primitive shell pairs       ...      8022
Primitive shell pairs kept                  ...      5598
          la=0 lb=0:    509 shell pairs
          la=1 lb=0:    587 shell pairs
          la=1 lb=1:    185 shell pairs
          la=2 lb=0:    189 shell pairs
          la=2 lb=1:    113 shell pairs
          la=2 lb=2:     21 shell pairs

Checking whether 4 symmetric matrices of dimension 119 fit in memory
:Max Core in MB      =   4096.00
 MB in use           =      5.65
 MB left             =   4090.35
 MB needed           =      0.22
 Data fit in memory  = YES
Calculating RI/J V-Matrix + Cholesky decomp.... done (  0.0 sec)
Calculating Nuclear repulsion               ... done (  0.0 sec) ENN=    247.666210240804 Eh

Diagonalization of the overlap matrix:
Smallest eigenvalue                        ... 3.979e-03
Time for diagonalization                   ...    0.001 sec
Threshold for overlap eigenvalues          ... 1.000e-07
Number of eigenvalues below threshold      ... 0
Time for construction of square roots      ...    0.000 sec
Total time needed                          ...    0.001 sec

-------------------
DFT GRID GENERATION
-------------------

General Integration Accuracy     IntAcc      ... 4.388
Radial Grid Type                 RadialGrid  ... OptM3 with GC (2021)
Angular Grid (max. ang.)         AngularGrid ... 4 (Lebedev-302)
Angular grid pruning method      GridPruning ... 4 (adaptive)
Weight generation scheme         WeightScheme... mBecke (2022)
Basis function cutoff            BFCut       ... 1.0000e-11
Integration weight cutoff        WCut        ... 1.0000e-14
Partially contracted basis set               ... off
Rotationally invariant grid construction     ... off
Angular grids for H and He will be reduced by one unit

Total number of grid points                  ...    58940
Total number of batches                      ...      927
Average number of points per batch           ...       63
Average number of grid points per atom       ...     4534
Grids setup in   0.2 sec
Initializing property integral containers    ... done (  0.0 sec)

SHARK setup successfully completed in   0.2 seconds

Maximum memory used throughout the entire STARTUP-calculation: 24.9 MB
Occupation numbers will be reassigned to an Aufbau configuration
             **** ENERGY FILE WAS UPDATED (a.goat.0.0.en.tmp) ****
Finished Guess after   0.0 sec
Maximum memory used throughout the entire GUESS-calculation: 9.2 MB
----------------------------------------D-I-I-S--------------------------------------------
Iteration    Energy (Eh)           Delta-E    RMSDP     MaxDP     DIISErr   Damp  Time(sec)
-------------------------------------------------------------------------------------------
               ***  Starting incremental Fock matrix formation  ***
    1    -323.5145587637804283     0.00e+00  3.98e-04  6.77e-03  2.21e-02  0.700   0.2
    2    -323.5159410070369859    -1.38e-03  3.78e-04  6.45e-03  1.70e-02  0.700   0.2
                               ***Turning on AO-DIIS***
    3    -323.5169974090971436    -1.06e-03  2.92e-04  4.84e-03  1.23e-02  0.700   0.2
    4    -323.5177411919308952    -7.44e-04  7.26e-04  1.18e-02  8.72e-03  0.000   0.2
                              *** Initializing SOSCF ***
---------------------------------------S-O-S-C-F--------------------------------------
Iteration    Energy (Eh)           Delta-E    RMSDP     MaxDP     MaxGrad    Time(sec)
--------------------------------------------------------------------------------------
    5    -323.5194851076036002    -1.74e-03  3.84e-05  7.90e-04  5.99e-04     0.2
               *** Restarting incremental Fock matrix formation ***
    6    -323.5194864516161033    -1.34e-06  6.75e-05  1.59e-03  3.37e-04     0.2
    7    -323.5194806797105684     5.77e-06  4.49e-05  1.20e-03  1.13e-03     0.2
    8    -323.5194878917134247    -7.21e-06  1.37e-05  2.99e-04  6.10e-05     0.2
    9    -323.5194877449089290     1.47e-07  8.13e-06  2.00e-04  7.75e-05     0.2
   10    -323.5194879605963933    -2.16e-07  2.63e-06  3.91e-05  1.15e-05     0.2
   11    -323.5194879593306041     1.27e-09  1.35e-06  2.14e-05  1.27e-05     0.2
                 **** Energy Check signals convergence ****

               *****************************************************
               *                     SUCCESS                       *
               *           SCF CONVERGED AFTER  11 CYCLES          *
               *****************************************************

             **** ENERGY FILE WAS UPDATED (a.goat.0.0.en.tmp) ****

----------------
TOTAL SCF ENERGY
----------------

Total Energy       :       -323.51948796308136 Eh           -8803.41282 eV

Components:
Nuclear Repulsion  :        247.66621024080371 Eh            6739.34020 eV
Electronic Energy  :       -571.18569820388507 Eh          -15542.75303 eV
One Electron Energy:       -931.50068178806077 Eh          -25347.42219 eV
Two Electron Energy:        360.31498358417576 Eh            9804.66916 eV

Virial components:
Potential Energy   :       -645.13671827148016 Eh          -17555.06259 eV
Kinetic Energy     :        321.61723030839880 Eh            8751.64976 eV
Virial Ratio       :          2.00591466338062

DFT components:
N(Alpha)           :       24.000008862463 electrons
N(Beta)            :       24.000008862463 electrons
N(Total)           :       48.000017724926 electrons
E(X)               :      -40.697139106362 Eh       
E(C)               :       -2.115239898995 Eh       
E(XC)              :      -42.812379005357 Eh       

---------------
SCF CONVERGENCE
---------------

  Last Energy change         ...   -1.2658e-09  Tolerance :   1.0000e-08
  Last MAX-Density change    ...    2.1392e-05  Tolerance :   1.0000e-07
  Last RMS-Density change    ...    1.3533e-06  Tolerance :   5.0000e-09
  Last DIIS Error            ...    5.9912e-04  Tolerance :   5.0000e-07
  Last Orbital Gradient      ...    1.2718e-05  Tolerance :   1.0000e-05
  Last Orbital Rotation      ...    1.3732e-05  Tolerance :   1.0000e-05


Total SCF time: 0 days 0 hours 0 min 2 sec 
Finished LeanSCF after   2.6 sec

Maximum memory used throughout the entire LEANSCF-calculation: 12.9 MB



-------------------------------------------------------------------------------
                          DFT DISPERSION CORRECTION                            
-------------------------------------------------------------------------------
------------------------------------------------------------------------------
                         ORCA SCF GRADIENT CALCULATION
------------------------------------------------------------------------------

Nuc. rep. gradient        (SHARK) ... done (  0.0 sec)
HCore & Overlap gradient  (SHARK) ... done (  0.0 sec)
Split-RIJ-J gradient      (SHARK) ... done (  0.2 sec)
XC gradient                       ... done (  1.1 sec)
Dispersion correction             ... done (  0.0 sec)

-------------------
DISPERSION GRADIENT
-------------------

   1   C   :   -0.000269019    0.000218105    0.000305855
   2   O   :    0.000604115    0.000412547   -0.000023263
   3   O   :    0.000344501    0.000453375   -0.000222697
   4   C   :    0.000879709   -0.000796253   -0.000731556
   5   H   :   -0.000493792    0.000154440   -0.000051214
   6   C   :   -0.000201752    0.000435131    0.000387392
   7   H   :   -0.000490662   -0.001149345    0.000286068
   8   N   :    0.000889978    0.000821181   -0.000168304
   9   H   :   -0.001297194    0.000498447   -0.000778801
  10   H   :    0.000855125    0.000117039   -0.000787786
  11   H   :   -0.000020641   -0.000054329    0.000066706
  12   H   :   -0.000372167   -0.000425321    0.001070195
  13   H   :   -0.000428200   -0.000685018    0.000647406

Difference to translation invariance:
           :   -0.0000000000   -0.0000000000   -0.0000000000

Difference to rotation invariance:
           :   -0.0000000000    0.0000000000    0.0000000000

Norm of the Dispersion gradient    ...    0.0036472366
RMS gradient                       ...    0.0005840253
MAX gradient                       ...    0.0012971941

------------------
CARTESIAN GRADIENT
------------------

   1   C   :   -0.008299643   -0.006032909    0.008663940
   2   O   :    0.007034751   -0.003683416    0.000653514
   3   O   :    0.006473012    0.005651111   -0.008700178
   4   C   :    0.002010899   -0.008228375    0.000755430
   5   H   :   -0.003173061    0.002736755   -0.000697432
   6   C   :   -0.002684074    0.002805254    0.001620770
   7   H   :   -0.004437030   -0.003929956   -0.003025588
   8   N   :    0.002202069   -0.001911593    0.005077788
   9   H   :    0.006986516    0.005080824    0.003976232
  10   H   :   -0.002522125    0.005265402   -0.005035962
  11   H   :   -0.001453889   -0.001291082    0.000087966
  12   H   :   -0.001593399   -0.000080932   -0.002319703
  13   H   :   -0.000544026    0.003618916   -0.001056775

Difference to translation invariance:
           :    0.0000000000   -0.0000000000    0.0000000000

Difference to rotation invariance:
           :   -0.0000609826   -0.0002511825    0.0001892649

Norm of the Cartesian gradient     ...    0.0274972816
RMS gradient                       ...    0.0044030889
MAX gradient                       ...    0.0087001782

-------
TIMINGS
-------

Total SCF gradient time     ....        1.375 sec

Densities                   ....       0.000 sec  (  0.0%)
One electron gradient       ....       0.040 sec  (  2.9%)
RI-J Coulomb gradient       ....       0.231 sec  ( 16.8%)
XC gradient                 ....       1.104 sec  ( 80.2%)

Maximum memory used throughout the entire SCFGRAD-calculation: 17.0 MB
------------------------------------------------------------------------------
                         ORCA GEOMETRY RELAXATION STEP
------------------------------------------------------------------------------

Reading the OPT-File                    .... done

---------------------------------------------
FINAL SINGLE POINT ENERGY      -323.534185732207
---------------------------------------------

Getting information on internals        .... done
Copying old internal coords+grads       .... done
Making the new internal coordinates     .... (2022 redundants) done
Validating the new internal coordinates .... (2022 redundants) done
Calculating the B-matrix                .... done
Calculating the G,G- and P matrices     .... done
Transforming gradient to internals      .... done
Projecting the internal gradient        .... done
Number of atoms                         ....  13
Number of internal coordinates          ....  51
Current Energy                          ....  -323.534185732 Eh
Current gradient norm                   ....     0.027497282 Eh/bohr
Maximum allowed component of the step   ....  0.300
Current trust radius                    ....  0.450
Updating the Hessian (BFGS)             .... done
Making uphill step                      .... done
Uphill step size                        .... 0.449635
Converting the step to Cartesian space:
 Initial RMS(Int)=    0.0629615096
Transforming coordinates:
 Iter   0:  RMS(Cart)=    0.0746454056 RMS(Int)=    0.0631237328
 Iter   5:  RMS(Cart)=    0.0000096676 RMS(Int)=    0.0000091747
Imposing constraints:
 Iter   0:  RMS(Cart)=    0.0007728160 RMS(Int)=    0.0000582920
CONVERGED
done
Storing new coordinates                 .... done
Current trust radius                    ....     0.4500
Energy difference                       ....     1.7878 kcal/mol
Maximum difference                      ....     0.3900 kcal/mol
New trust radius                        ....     0.3000

                                .--------------------.
          ----------------------|Geometry convergence|-------------------------
          Item                value                   Tolerance       Converged
          ---------------------------------------------------------------------
          Energy change       0.0028489843            0.0000050000      NO
          RMS gradient        0.0042756080            0.0001000000      NO
          MAX gradient        0.0165045334            0.0003000000      NO
          RMS step            0.0629615096            0.0020000000      NO
          MAX step            0.2510165265            0.0040000000      NO
          -------------------------------------------------------------------------
          ........................................................
          Max(Bonds)      0.0692      Max(Angles)    1.98
          Max(Dihed)       14.38      Max(Improp)    0.00
          ---------------------------------------------------------------------

Geometry step timings:
Preparation and reading OPT file:      0.000 s ( 1.865 %)
Internal coordinates            :      0.000 s ( 1.435 %)
B/P matrices and projection     :      0.000 s (30.129 %)
Hessian update/contruction      :      0.000 s (11.621 %)
Making the step                 :      0.000 s (41.033 %)
Converting the step to Cartesian:      0.000 s ( 6.743 %)
Storing new data                :      0.000 s ( 1.722 %)
Checking convergence            :      0.000 s ( 2.296 %)
GOAT stuff                      :      0.000 s ( 0.143 %)
Final printing                  :      0.000 s ( 3.013 %)
Total time                      :      0.001 s

Time for energy+gradient        :      4.245 s
Time for complete geometry iter :      4.258 s

         *************************************************************
         *                GEOMETRY OPTIMIZATION CYCLE   4            *
         *************************************************************
---------------------------------
CARTESIAN COORDINATES (ANGSTROEM)
---------------------------------
  C     -4.612321    0.490645   -2.457153
  O     -4.520937    1.412021   -3.241487
  O     -3.477174   -0.197046   -2.132528
  C     -5.984024   -0.108316   -2.024992
  H     -3.711058   -0.772441   -1.378890
  C     -6.544951   -0.738358   -3.314698
  H     -6.572593   -0.032420   -4.153409
  N     -5.979951   -1.069467   -0.918654
  H     -5.795497   -1.495505   -3.597227
  H     -7.569580   -1.122251   -3.223449
  H     -6.613026    0.740268   -1.714348
  H     -5.610137   -1.975629   -1.200291
  H     -5.494472   -0.677072   -0.115297

----------------------------
CARTESIAN COORDINATES (A.U.)
----------------------------
  NO LB      ZA    FRAG     MASS         X           Y           Z
   0 C     6.0000    1    12.011   -8.716023    0.927185   -4.643345
   1 O     8.0000    1    15.999   -8.543333    2.668332   -6.125522
   2 O     8.0000    1    15.999   -6.570907   -0.372363   -4.029895
   3 C     6.0000    1    12.011  -11.308166   -0.204687   -3.826680
   4 H     1.0000    1     1.008   -7.012883   -1.459702   -2.605725
   5 C     6.0000    1    12.011  -12.368165   -1.395294   -6.263872
   6 H     1.0000    1     1.008  -12.420401   -0.061265   -7.848806
   7 N     7.0000    1    14.007  -11.300471   -2.021000   -1.736005
   8 H     1.0000    1     1.008  -10.951902   -2.826094   -6.797774
   9 H     1.0000    1     1.008  -14.304433   -2.120747   -6.091437
  10 H     1.0000    1     1.008  -12.496809    1.398903   -3.239648
  11 H     1.0000    1     1.008  -10.601623   -3.733398   -2.268221
  12 H     1.0000    1     1.008  -10.383047   -1.279481   -0.217879

----------------------------------------------
CARTESIAN COORDINATES OF FRAGMENTS (ANGSTROEM)
----------------------------------------------

 FRAGMENT 1 
  C    -4.612321    0.490645   -2.457153
  O    -4.520937    1.412021   -3.241487
  O    -3.477174   -0.197046   -2.132528
  C    -5.984024   -0.108316   -2.024992
  H    -3.711058   -0.772441   -1.378890
  C    -6.544951   -0.738358   -3.314698
  H    -6.572593   -0.032420   -4.153409
  N    -5.979951   -1.069467   -0.918654
  H    -5.795497   -1.495505   -3.597227
  H    -7.569580   -1.122251   -3.223449
  H    -6.613026    0.740268   -1.714348
  H    -5.610137   -1.975629   -1.200291
  H    -5.494472   -0.677072   -0.115297

--------------------------------
INTERNAL COORDINATES (ANGSTROEM)
--------------------------------
 C      0   0   0     0.000000000000     0.00000000     0.00000000
 O      1   0   0     1.213450893094     0.00000000     0.00000000
 O      1   2   0     1.366330232245   118.24018632     0.00000000
 C      1   2   3     1.557911268378   122.51582187   192.07741572
 H      3   1   2     0.976602003372   106.31520823   169.47675635
 C      4   1   2     1.541082608322   104.21191866    65.80151214
 H      6   4   1     1.096607310151   112.70952476   306.52630026
 N      4   1   2     1.465541178620   117.32940083   189.46447249
 H      6   4   1     1.102168638252   104.35180901    60.21195762
 H      6   4   1     1.097982145202   114.39704826   186.16896326
 H      4   1   2     1.101016611822   106.55633425   309.39597357
 H      8   4   1     1.018435453677   112.07279359   285.99635372
 H      8   4   1     1.017373185683   110.14964962    52.51452000

---------------------------
INTERNAL COORDINATES (A.U.)
---------------------------
 C      0   0   0     0.000000000000     0.00000000     0.00000000
 O      1   0   0     2.293089864910     0.00000000     0.00000000
 O      1   2   0     2.581989947440   118.24018632     0.00000000
 C      1   2   3     2.944025638184   122.51582187   192.07741572
 H      3   1   2     1.845510328212   106.31520823   169.47675635
 C      4   1   2     2.912224079477   104.21191866    65.80151214
 H      6   4   1     2.072287492641   112.70952476   306.52630026
 N      4   1   2     2.769471465576   117.32940083   189.46447249
 H      6   4   1     2.082796879693   104.35180901    60.21195762
 H      6   4   1     2.074885554368   114.39704826   186.16896326
[...]

Components:
Nuclear Repulsion  :        247.31550863922649 Eh            6729.79713 eV
Electronic Energy  :       -570.83805095975231 Eh          -15533.29306 eV
One Electron Energy:       -930.81572097793401 Eh          -25328.78346 eV
Two Electron Energy:        359.97767001818170 Eh            9795.49039 eV

Virial components:
Potential Energy   :       -645.12102016224605 Eh          -17554.63542 eV
Kinetic Energy     :        321.59847784172024 Eh            8751.13948 eV
Virial Ratio       :          2.00598281587562

DFT components:
N(Alpha)           :       24.000016944625 electrons
N(Beta)            :       24.000016944625 electrons
N(Total)           :       48.000033889251 electrons
E(X)               :      -40.696339437777 Eh       
E(C)               :       -2.115162835616 Eh       
E(XC)              :      -42.811502273393 Eh       

---------------
SCF CONVERGENCE
---------------

  Last Energy change         ...   -3.8895e-09  Tolerance :   1.0000e-08
  Last MAX-Density change    ...    3.9212e-05  Tolerance :   1.0000e-07
  Last RMS-Density change    ...    1.5721e-06  Tolerance :   5.0000e-09
  Last DIIS Error            ...    1.7023e-03  Tolerance :   5.0000e-07
  Last Orbital Gradient      ...    2.8369e-05  Tolerance :   1.0000e-05
  Last Orbital Rotation      ...    3.3987e-05  Tolerance :   1.0000e-05


Total SCF time: 0 days 0 hours 0 min 1 sec 
Finished LeanSCF after   1.5 sec

Maximum memory used throughout the entire LEANSCF-calculation: 12.9 MB



-------------------------------------------------------------------------------
                          DFT DISPERSION CORRECTION                            
-------------------------------------------------------------------------------
------------------------------------------------------------------------------
                         ORCA SCF GRADIENT CALCULATION
------------------------------------------------------------------------------

Nuc. rep. gradient        (SHARK) ... done (  0.0 sec)
HCore & Overlap gradient  (SHARK) ... done (  0.0 sec)
Split-RIJ-J gradient      (SHARK) ... done (  0.2 sec)
XC gradient                       ... done (  1.1 sec)
Dispersion correction             ... done (  0.0 sec)

-------------------
DISPERSION GRADIENT
-------------------

   1   C   :   -0.000190275    0.000260268    0.000354399
   2   O   :    0.000701129    0.000404765   -0.000037055
   3   O   :    0.000257282    0.000409404   -0.000257567
   4   C   :    0.000821762   -0.000956347   -0.000599593
   5   H   :   -0.000629762    0.000163805   -0.000066306
   6   C   :   -0.000149410    0.000409293    0.000369048
   7   H   :   -0.000639571   -0.001246760    0.000285190
   8   N   :    0.001038200    0.000821814   -0.000199328
   9   H   :   -0.001173751    0.000616465   -0.000601208
  10   H   :    0.000661651    0.000090764   -0.000994600
  11   H   :   -0.000011448   -0.000029654    0.000144010
  12   H   :   -0.000254276   -0.000330294    0.000998056
  13   H   :   -0.000431531   -0.000613522    0.000604954

Difference to translation invariance:
           :    0.0000000000   -0.0000000000    0.0000000000

Difference to rotation invariance:
           :    0.0000000000   -0.0000000000    0.0000000000

Norm of the Dispersion gradient    ...    0.0036608942
RMS gradient                       ...    0.0005862122
MAX gradient                       ...    0.0012467598

------------------
CARTESIAN GRADIENT
------------------

   1   C   :    0.000116222   -0.000089690    0.000021336
   2   O   :   -0.000051736   -0.000007435   -0.000001398
   3   O   :    0.000041328   -0.000004117    0.000009264
   4   C   :   -0.000133013    0.000079002    0.000125649
   5   H   :   -0.000005178   -0.000006937   -0.000024669
   6   C   :   -0.000089256    0.000001877   -0.000026965
   7   H   :   -0.000023314   -0.000002512    0.000012117
   8   N   :    0.000200117   -0.000012593   -0.000170852
   9   H   :    0.000073654    0.000028086    0.000035180
  10   H   :   -0.000019242    0.000029226   -0.000041257
  11   H   :    0.000022187    0.000011495   -0.000010140
  12   H   :   -0.000080435   -0.000012183    0.000062873
  13   H   :   -0.000051333   -0.000014220    0.000008862

Difference to translation invariance:
           :    0.0000000000    0.0000000000    0.0000000000

Difference to rotation invariance:
           :    0.0002443540    0.0000446735   -0.0003629014

Norm of the Cartesian gradient     ...    0.0004127213
RMS gradient                       ...    0.0000660883
MAX gradient                       ...    0.0002001170

-------
TIMINGS
-------

Total SCF gradient time     ....        1.376 sec

Densities                   ....       0.000 sec  (  0.0%)
One electron gradient       ....       0.040 sec  (  2.9%)
RI-J Coulomb gradient       ....       0.245 sec  ( 17.8%)
XC gradient                 ....       1.091 sec  ( 79.2%)

Maximum memory used throughout the entire SCFGRAD-calculation: 17.0 MB
------------------------------------------------------------------------------
                         ORCA GEOMETRY RELAXATION STEP
------------------------------------------------------------------------------

Reading the OPT-File                    .... done

---------------------------------------------
FINAL SINGLE POINT ENERGY      -323.537025774022
---------------------------------------------

Getting information on internals        .... done
Copying old internal coords+grads       .... done
Making the new internal coordinates     .... (2022 redundants) done
Validating the new internal coordinates .... (2022 redundants) done
Calculating the B-matrix                .... done
Calculating the G,G- and P matrices     .... done
Transforming gradient to internals      .... done
Projecting the internal gradient        .... done
Number of atoms                         ....  13
Number of internal coordinates          ....  51
Current Energy                          ....  -323.537025774 Eh
Current gradient norm                   ....     0.000412721 Eh/bohr
Maximum allowed component of the step   ....  0.300
Current trust radius                    ....  0.700
Updating the Hessian (BFGS)             .... done
Forming the augmented Hessian           .... done
Diagonalizing the augmented Hessian     .... done
Last element of RFO vector              ....  0.999987485
Lowest eigenvalues of augmented Hessian:
 -0.000000813  0.001695095  0.008286209  0.009587827  0.016567070
Length of the computed step             ....  0.005003007
The final length of the internal step   ....  0.005003007
Converting the step to Cartesian space:
 Initial RMS(Int)=    0.0007005611
Transforming coordinates:
 Iter   0:  RMS(Cart)=    0.0010398542 RMS(Int)=    0.0007003915
done
Storing new coordinates                 .... done
The predicted energy change is          ....    -0.000000406
Previously predicted energy change      ....    -0.000002216
Actually observed energy change         ....    -0.000002765
Ratio of predicted to observed change   ....     1.247663959
New trust radius                        ....     0.700000000

                                .--------------------.
          ----------------------|Geometry convergence|-------------------------
          Item                value                   Tolerance       Converged
          ---------------------------------------------------------------------
          Energy change      -0.0000027651            0.0000050000      YES
          RMS gradient        0.0000425625            0.0001000000      YES
          MAX gradient        0.0001469606            0.0003000000      YES
          RMS step            0.0007005611            0.0020000000      YES
          MAX step            0.0020595215            0.0040000000      YES
          -------------------------------------------------------------------------
          ........................................................
          Max(Bonds)      0.0003      Max(Angles)    0.06
          Max(Dihed)        0.12      Max(Improp)    0.00
          ---------------------------------------------------------------------

			-----------------------
			     GOAT ITER   3       
			-----------------------

	Minimum found after 12 optimization iterations! E = -323.537026

	Current MaxEn         : 39.00 kcal/mol
	Current Temperature   : 2903.97 K
	Current UphillGradComp: 1.00

	Difference from last minimum  : 0.80 kcal/mol
	Probability of acceptance     : 87.13 %

	Comparing to previous structures  .... done
	Structure 2 has RMSD: 0.004372 and Ediff: 0.005594

	Current minimum equal to a previous one. Increasing MaxEn.

	New MaxEn         : 40.95 kcal/mol
	New Temperature   : 2903.97 K
	New UphillGradComp: 0.43

Geometry step timings:
Preparation and reading OPT file:      0.000 s ( 1.780 %)
Internal coordinates            :      0.000 s ( 1.484 %)
B/P matrices and projection     :      0.000 s (34.718 %)
Hessian update/contruction      :      0.000 s (15.282 %)
Making the step                 :      0.000 s (23.442 %)
Converting the step to Cartesian:      0.000 s ( 3.264 %)
Storing new data                :      0.000 s ( 1.484 %)
Checking convergence            :      0.000 s ( 2.077 %)
GOAT stuff                      :      0.000 s (13.650 %)
Final printing                  :      0.000 s ( 2.819 %)
Total time                      :      0.001 s

Time for energy+gradient        :      3.189 s
Time for complete geometry iter :      3.201 s

         *************************************************************
         *                GEOMETRY OPTIMIZATION CYCLE  71            *
         *************************************************************
---------------------------------
CARTESIAN COORDINATES (ANGSTROEM)
---------------------------------
  C     -4.534343    0.451764   -2.549152
  O     -4.435788    1.357250   -3.350959
  O     -3.426652   -0.153493   -2.026448
  C     -5.912266   -0.097793   -2.073587
  H     -3.740587   -0.836370   -1.402672
  C     -6.632649   -0.720908   -3.285297
  H     -6.659941   -0.000519   -4.111664
  N     -5.913574   -1.048300   -0.958378
  H     -6.094422   -1.620494   -3.625422
  H     -7.654079   -1.007627   -3.002320
  H     -6.474897    0.793293   -1.754919
  H     -5.548614   -1.964347   -1.212577
  H     -5.457908   -0.698027   -0.119028

----------------------------
CARTESIAN COORDINATES (A.U.)
----------------------------
  NO LB      ZA    FRAG     MASS         X           Y           Z
   0 C     6.0000    1    12.011   -8.568666    0.853711   -4.817200
   1 O     8.0000    1    15.999   -8.382425    2.564830   -6.332395
   2 O     8.0000    1    15.999   -6.475433   -0.290059   -3.829431
   3 C     6.0000    1    12.011  -11.172563   -0.184803   -3.918511
   4 H     1.0000    1     1.008   -7.068685   -1.580510   -2.650667
   5 C     6.0000    1    12.011  -12.533891   -1.362318   -6.208312
   6 H     1.0000    1     1.008  -12.585465   -0.000981   -7.769918
   7 N     7.0000    1    14.007  -11.175035   -1.981001   -1.811072
   8 H     1.0000    1     1.008  -11.516788   -3.062290   -6.851055
   9 H     1.0000    1     1.008  -14.464113   -1.904138   -5.673562
  10 H     1.0000    1     1.008  -12.235782    1.499107   -3.316316
  11 H     1.0000    1     1.008  -10.485361   -3.712078   -2.291438
  12 H     1.0000    1     1.008  -10.313952   -1.319080   -0.224930

----------------------------------------------
CARTESIAN COORDINATES OF FRAGMENTS (ANGSTROEM)
----------------------------------------------

 FRAGMENT 1 
  C    -4.534343    0.451764   -2.549152
  O    -4.435788    1.357250   -3.350959
  O    -3.426652   -0.153493   -2.026448
  C    -5.912266   -0.097793   -2.073587
  H    -3.740587   -0.836370   -1.402672
  C    -6.632649   -0.720908   -3.285297
  H    -6.659941   -0.000519   -4.111664
  N    -5.913574   -1.048300   -0.958378
  H    -6.094422   -1.620494   -3.625422
  H    -7.654079   -1.007627   -3.002320
  H    -6.474897    0.793293   -1.754919
  H    -5.548614   -1.964347   -1.212577
  H    -5.457908   -0.698027   -0.119028

--------------------------------
INTERNAL COORDINATES (ANGSTROEM)
--------------------------------
 C      0   0   0     0.000000000000     0.00000000     0.00000000
 O      1   0   0     1.213470531445     0.00000000     0.00000000
 O      1   2   0     1.366212327485   121.16672943     0.00000000
 C      1   2   3     1.557834525453   122.46497080   180.84740423
 H      3   1   2     0.976715255752   107.06655938   179.24692621
 C      4   1   2     1.541255033546   108.42371462    64.11332857
 H      6   4   1     1.096624668464   109.78434106   307.76525629
 N      4   1   2     1.465317427319   117.51337287   189.03333447
 H      6   4   1     1.102102396579   110.14309782    67.06759958
 H      6   4   1     1.097999185750   109.74055055   186.70756327
 H      4   1   2     1.100971938524   104.76486658   308.50934524
 H      8   4   1     1.018309492699   113.15520728   288.40900540
 H      8   4   1     1.017266533599   113.84140646    56.09511782

---------------------------
INTERNAL COORDINATES (A.U.)
---------------------------
 C      0   0   0     0.000000000000     0.00000000     0.00000000
 O      1   0   0     2.293126976015     0.00000000     0.00000000
 O      1   2   0     2.581767139733   121.16672943     0.00000000
 C      1   2   3     2.943880615073   122.46497080   180.84740423
 H      3   1   2     1.845724344194   107.06655938   179.24692621
 C      4   1   2     2.912549915929   108.42371462    64.11332857
 H      6   4   1     2.072320295100   109.78434106   307.76525629
 N      4   1   2     2.769048636895   117.51337287   189.03333447
 H      6   4   1     2.082671701073   110.14309782    67.06759958
 H      6   4   1     2.074917756336   109.74055055   186.70756327
 H      4   1   2     2.080535444943   104.76486658   308.50934524
 H      8   4   1     1.924326060773   113.15520728   288.40900540
 H      8   4   1     1.922355153706   113.84140646    56.09511782

------------------------------------------------------------------------------
                   ___                                                        
                  /   \      - P O W E R E D   B Y -                         
                 /     \                                                     
                 |  |  |   _    _      __       _____    __    __             
                 |  |  |  | |  | |    /  \     |  _  \  |  |  /  |          
                  \  \/   | |  | |   /    \    | | | |  |  | /  /          
                 / \  \   | |__| |  /  /\  \   | |_| |  |  |/  /          
                |  |  |   |  __  | /  /__\  \  |    /   |      \           
                |  |  |   | |  | | |   __   |  |    \   |  |\   \          
                \     /   | |  | | |  |  |  |  | |\  \  |  | \   \       
                 \___/    |_|  |_| |__|  |__|  |_| \__\ |__|  \__/        
                                                                              
                      - O R C A' S   B I G   F R I E N D -                    
                                      &                                       
                       - I N T E G R A L  F E E D E R -                       
                                                                              
 v1 FN, 2020, v2 2021, v3 2022-2024                                           
------------------------------------------------------------------------------


----------------------
SHARK INTEGRAL PACKAGE
----------------------

Number of atoms                             ...     13
Number of basis functions                   ...    119
Number of shells                            ...     57
Maximum angular momentum                    ...      2
Integral batch strategy                     ... SHARK/LIBINT Hybrid
RI-J (if used) integral strategy            ... SPLIT-RIJ (Revised 2003 algorithm where possible)
Printlevel                                  ...      1
Contraction scheme used                     ... SEGMENTED contraction
Prescreening option                         ... SCHWARTZ
   Thresh                                   ... 2.500e-11
   Tcut                                     ... 2.500e-12
   Tpresel                                  ... 2.500e-12 
Coulomb Range Separation                    ... NOT USED
Exchange Range Separation                   ... NOT USED
Multipole approximations                    ... NOT USED
Finite Nucleus Model                        ... NOT USED
CABS basis                                  ... NOT available
Auxiliary Coulomb fitting basis             ... AVAILABLE
   # of basis functions in Aux-J            ...    371
   # of shells in Aux-J                     ...    125
   Maximum angular momentum in Aux-J        ...      4
Auxiliary J/K fitting basis                 ... NOT available
Auxiliary Correlation fitting basis         ... NOT available
Auxiliary 'external' fitting basis          ... NOT available

Checking pre-screening integrals            ... done (  0.0 sec) Dimension = 57
   => SHARK Basis and OBASIS are compatible. Storing Pre-screening
Shell pair information
Shell pair cut-off parameter TPreSel        ...   2.5e-12
Total number of shell pairs                 ...      1653
Shell pairs after pre-screening             ...      1603
Total number of primitive shell pairs       ...      8022
Primitive shell pairs kept                  ...      5599
          la=0 lb=0:    509 shell pairs
          la=1 lb=0:    587 shell pairs
          la=1 lb=1:    184 shell pairs
          la=2 lb=0:    189 shell pairs
          la=2 lb=1:    113 shell pairs
          la=2 lb=2:     21 shell pairs

Checking whether 4 symmetric matrices of dimension 119 fit in memory
:Max Core in MB      =   4096.00
 MB in use           =      5.54
 MB left             =   4090.46
 MB needed           =      0.22
 Data fit in memory  = YES
Calculating RI/J V-Matrix + Cholesky decomp.... done (  0.0 sec)
Calculating Nuclear repulsion               ... done (  0.0 sec) ENN=    247.312596386076 Eh

Diagonalization of the overlap matrix:
Smallest eigenvalue                        ... 3.968e-03
Time for diagonalization                   ...    0.001 sec
Threshold for overlap eigenvalues          ... 1.000e-07
Number of eigenvalues below threshold      ... 0
Time for construction of square roots      ...    0.000 sec
Total time needed                          ...    0.001 sec

-------------------
DFT GRID GENERATION
-------------------

General Integration Accuracy     IntAcc      ... 4.388
Radial Grid Type                 RadialGrid  ... OptM3 with GC (2021)
Angular Grid (max. ang.)         AngularGrid ... 4 (Lebedev-302)
Angular grid pruning method      GridPruning ... 4 (adaptive)
Weight generation scheme         WeightScheme... mBecke (2022)
Basis function cutoff            BFCut       ... 1.0000e-11
Integration weight cutoff        WCut        ... 1.0000e-14
Partially contracted basis set               ... off
Rotationally invariant grid construction     ... off
Angular grids for H and He will be reduced by one unit

Total number of grid points                  ...    58937
Total number of batches                      ...      928
Average number of points per batch           ...       63
Average number of grid points per atom       ...     4534
Grids setup in   0.2 sec
Initializing property integral containers    ... done (  0.0 sec)

SHARK setup successfully completed in   0.2 seconds

Maximum memory used throughout the entire STARTUP-calculation: 24.8 MB
Loading Hartree-Fock densities                     ... done
Calculating cut-offs                               ... done
Initializing the effective Hamiltonian             ... done
Setting up the integral package (SHARK)            ... done
Starting the Coulomb interaction                   ... done (   0.0 sec)
Making the grid                                    ... 