
                                 *****************
                                 * O   R   C   A *
                                 *****************

                                            #,                                       
                                            ###                                      
                                            ####                                     
                                            #####                                    
                                            ######                                   
                                           ########,                                 
                                     ,,################,,,,,                         
                               ,,#################################,,                 
                          ,,##########################################,,             
                       ,#########################################, ''#####,          
                    ,#############################################,,   '####,        
                  ,##################################################,,,,####,       
                ,###########''''           ''''###############################       
              ,#####''   ,,,,##########,,,,          '''####'''          '####       
            ,##' ,,,,###########################,,,                        '##       
           ' ,,###''''                  '''############,,,                           
         ,,##''                                '''############,,,,        ,,,,,,###''
      ,#''                                            '''#######################'''  
     '                                                          ''''####''''         
             ,#######,   #######,   ,#######,      ##                                
            ,#'     '#,  ##    ##  ,#'     '#,    #''#        ,####,    ,#,          
            ##       ##  ##   ,#'  ##            #'  '#       #'       ,# #          
            ##       ##  #######   ##           ,######,      #####,      #          
            '#,     ,#'  ##    ##  '#,     ,#' ,#      #,     #,   #      #          
             '#######'   ##     ##  '#######'  #'      '#     '####' #    #          



                #########################################################
                #                        -***-                          #
                #          Department of theory and spectroscopy        #
                #                                                       #
                #                      Frank Neese                      #
                #                                                       #
                #     Directorship, Architecture, Infrastructure        #
                #                    SHARK, DRIVERS                     #
                #        Core code/Algorithms in most modules           #
                #                                                       #
                #        Max Planck Institute fuer Kohlenforschung      #
                #                Kaiser Wilhelm Platz 1                 #
                #                 D-45470 Muelheim/Ruhr                 #
                #                      Germany                          #
                #                                                       #
                #                  All rights reserved                  #
                #                        -***-                          #
                #########################################################


                         Program Version 6.1.0  -  RELEASE   -
                                (GIT: $679e74b$)
                          ($2025-06-10 18:02:51 +0200$)


 With contributions from (in alphabetic order):
[Max-Planck-Institut fuer Kohlenforschung]                               
  Daniel Aravena         : Magnetic Suceptibility                        
  Michael Atanasov       : Ab Initio Ligand Field Theory (pilot matlab implementation)
  Alexander A. Auer      : GIAO ZORA, VPT2 properties, NMR spectrum      
  Ute Becker             : All parallelization in ORCA, NUMFREQ, NUMCALC 
  Giovanni Bistoni       : ED, misc. LED, open-shell LED, HFLD           
  Dmytro Bykov           : pre 5.0 version of the SCF Hessian            
  Marcos Casanova-Páez   : Triplet and SCS-CIS(D). UHF-(DLPNO)-IP/EA/STEOM-CCSD. UHF-CVS-IP/STEOM-CCSD   
  Vijay G. Chilkuri      : MRCI spin determinant printing, contributions to CSF-ICE 
  Pauline Colinet        : FMM embedding                                 
  Dipayan Datta          : RHF DLPNO-CCSD density                        
  Achintya Kumar Dutta   : EOM-CC, STEOM-CC                              
  Nicolas Foglia         : Exact transition moments, OPA infrastructure, MCD improvements    
  Dmitry Ganyushin       : Spin-Orbit,Spin-Spin,Magnetic field MRCI      
  Miquel Garcia-Rates    : C-PCM and meta-GGA Hessian, CCSD/C-PCM, Gaussian charge scheme 
  Tiago L. C. Gouveia    : GS-ROHF, GS-ROCIS                             
  Yang Guo               : DLPNO-NEVPT2, F12-NEVPT2, CIM, IAO-localization        
  Andreas Hansen         : Spin unrestricted coupled pair/coupled cluster methods 
  Ingolf Harden          : AUTO-CI MPn and infrastructure                
  Benjamin Helmich-Paris : MC-RPA, TRAH-(SCF,CASSCF), AVAS, COSX integrals, SCF dyn. polar., MC-PDFT, srDFT 
  Lee Huntington         : MR-EOM, pCC                                   
  Robert Izsak           : Overlap fitted RIJCOSX, COSX-SCS-MP3, EOM     
  Riya Kayal             : Wick's Theorem for AUTO-CI, AUTO-CI UHF-CCSDT 
  Emily Kempfer          : AUTO-CI RHF CISDT and CCSDT, approximate NEVPT4
  Christian Kollmar      : KDIIS, OOCD, Brueckner-CCSD(T), CCSD density, CASPT2, CASPT2-K, improved NEVPT2 
  Axel Koslowski         : Symmetry handling                             
  Simone Kossmann        : meta-GGA functionals, TD-DFT gradient, OOMP2, (MP2 Hessian; deprecated post 5.0) 
  Lucas Lang             : DCDCAS, Hyperfine gauge corrections, ICE-SOC+SSC
  Marvin Lechner         : AUTO-CI (C++ implementation), FIC-MRCC        
  Spencer Leger          : CASSCF response                               
  Dagmar Lenk            : GEPOL surface, SMD, ORCA-2-JSON               
  Dimitrios Liakos       : Extrapolation schemes; Compound Job, Property file
  Dimitrios Manganas     : Further ROCIS development; embedding schemes. LFT, Crystal Embedding 
  Dimitrios Pantazis     : SARC Basis sets                               
  Anastasios Papadopoulos: AUTO-CI, single reference methods and gradients 
  Taras Petrenko         : pre 6.0 DFT Hessian and TD-DFT gradient,  ECA, NRVS 
  Petra Pikulova         : Analytic Raman intensities                    
  Peter Pinski           : DLPNO-MP2, DLPNO-MP2 Gradient                 
  Shashank Vittal Rao    : ES-AILFT, MagRelax                            
  Christoph Reimann      : Effective Core Potentials                     
  Marius Retegan         : Local ZFS, SOC                                
  Christoph Riplinger    : Optimizer, TS searches, QM/MM, DLPNO-CCSD(T), (RO)-DLPNO pert. Triples 
  Michael Roemelt        : Original ROCIS implementation, recursive CI coupling coefficients
  Masaaki Saitow         : Open-shell DLPNO-CCSD energy and density      
  Barbara Sandhoefer     : DKH picture change effects                    
  Yorick L. A. Schmerwitz: GMF and freeze-and-release deltaSCF, NEB S-IDPP initial path                    
  Kantharuban Sivalingam : CASSCF convergence/infrastructure, NEVPT2, NEVPT3, NEVPT4(SD), FIC-MRCI and CEPA variants
  Bernardo de Souza      : ESD, SOC TD-DFT                               
  Georgi L. Stoychev     : AutoAux, RI-MP2 NMR, DLPNO-MP2 response, X2C  
  Van Anh Tran           : RI-MP2 g-tensors                              
  Willem Van den Heuvel  : Paramagnetic NMR                              
  Zikuan Wang            : NOTCH, Electric field optimization            
  Frank Wennmohs         : Technical directorship and infrastructure     
  Hang Xu                : AUTO-CI-Response properties                   
                                                                         
[FACCTs GmbH]                                                            
  Markus Bursch, Nicolas Foglia, Miquel Garcia-Rates, Ingolf Harden, Hagen Neugebauer, Anastasios Papadopoulos, 
  Christoph Riplinger, Bernardo de Souza, Georgi L. Stoychev                                                    
                                                                 
  APM, various basis sets, CI-OPT, improved COSX, DLPNO-Multilevel,           
  DOCKER, DRACO, updates on ESD, Fragmentator, GOAT, IRC, LR-CPCM, L-BFGS, MBIS, meta-GGA TD-DFT gradient, ML-optimized integration grids, 
  MM, NACMEs, nearIR, NEB, NEB-TS, NL-DFT gradient (VV10), 2- and 3-layer-ONIOM, interface openCOSMO-RS, QMMM,   
  Crystal-QMMM, RESP, rigid body optimization, SF, symmetry and pop. for TD-DFT, various functionals, SOLVATOR                                   
                                                                         
[Other institutions]                                                     
  V. Asgeirsson          : NEB                                           
  Christoph Bannwarth    : sTDA-DFT, sTD-DFT, PBEh-3c, B97-3c, D3        
  Giovanni Bistoni       : ETS/NOCV, ADLD/ADEX, COVALED                  
  Martin Brehm           : Molecular dynamics                            
  Ronald Cardenas        : ETS/NOCV                                      
  Martina Colucci        : COVALED                                       
  Sebastian Ehlert       : rSCAN, r2SCAN, r2SCAN-3c, D4, dhf basis sets  
  Marvin Friede          : D4 for Fr, Ra, Ac-Lr                          
  Lars Goerigk           : TD-DFT with DH, B97 family of functionals     
  Stefan Grimme          : VdW corrections, initial TS optimization, DFT functionals, gCP, sTDA/sTD-DF 
  Waldemar Hujo          : DFT-NL                                        
  H. Jonsson             : NEB                                           
  Holger Kruse           : gCP                                           
  Marcel Mueller         : wB97X-3c, vDZP basis set                      
  Hagen Neugebauer       : wr2SCAN, Native XTB                           
  Gianluca Regni         : ADLD/ADEX                                     
  Tobias Risthaus        : pre 6.0 range-separated hybrid DFT and stability analysis
  Lukas Wittmann         : regularized MP2, r2SCAN double-hybrids, wr2SCAN        
                                                                         
We gratefully acknowledge several colleagues who have allowed us to      
interface, adapt or use parts of their codes:                            
  Ed Valeev, F. Pavosevic, A. Kumar             : LibInt (2-el integral package), F12 methods 
  Garnet Chan, S. Sharma, J. Yang, R. Olivares  : DMRG                   
  Ulf Ekstrom                                   : XCFun DFT Library      
  Mihaly Kallay                                 : mrcc  (arbitrary order and MRCC methods)
  Frank Weinhold                                : gennbo (NPA and NBO analysis)           
  Simon Mueller                                 : openCOSMO-RS                            
  Christopher J. Cramer and Donald G. Truhlar   : smd solvation model                     
  S Lehtola, MJT Oliveira, MAL Marques          : LibXC Library                           
  Liviu Ungur et al                             : ANISO software                          


 Your calculation uses the libint2 library for the computation of 2-el integrals
 For citations please refer to: http://libint.valeyev.net

 Your ORCA version has been built with support for libXC version: 7.0.0
 For citations please refer to: https://libxc.gitlab.io

 This ORCA versions uses:
   CBLAS   interface :  Fast vector & matrix operations
   LAPACKE interface :  Fast linear algebra routines
   SCALAPACK package :  Parallel linear algebra routines
   Shared memory     :  Shared parallel matrices
   BLAS/LAPACK       :  OpenBLAS 0.3.29  USE64BITINT DYNAMIC_ARCH NO_AFFINITY Haswell SINGLE_THREADED
        Core in use  :  Haswell
   Copyright (c) 2011-2014, The OpenBLAS Project


  ***********************************
  * Starting time: Fri Aug 29 15:48:29 2025
  * Host name:     chemlab03
  * Process ID:    66714
  * Working dir.:  /home/vivek/mm-project/vivek/B97-D-goat/a
  ***********************************



***************************************
The coordinates will be read from file: /home/vivek/mm-project/vivek/xtb-goat/xtb-goat/a/a-input-coordinates.xyz
***************************************


Your calculation utilizes empirical dispersion correction


Warning: RI is on but no J-basis has been assigned. Assigning Def2/J (nothing to worry about!)
================================================================================

----- Orbital basis set information -----
Your calculation utilizes the basis: 6-31G**
   H-He, Li-Ne : W. J. Hehre, R. Ditchfield and J.A. Pople, J. Chem. Phys. 56, 2257 (1972).
                 Note: He and Ne are unpublished basis sets taken from the Gaussian program.
                 Note: Li and B from J. D. Dill and J. A. Pople, J. Chem. Phys. 62, 2921 (1975).
   Na - Ar     : M. M. Francl, W. J. Pietro, W. J. Hehre, J. S. Binkley, M. S. Gordon, 
                 D. J. DeFrees and J. A. Pople, J. Chem. Phys. 77, 3654 (1982).
   K - Zn      : V. A. Rassolov, J. A. Pople, M. A. Ratner, and T. L. Windus, J. Chem. Phys. 109, 1223 (1998).

----- AuxJ basis set information -----
Your calculation utilizes the auxiliary basis: def2/J
   H-Rn: F. Weigend, Phys. Chem. Chem. Phys. 8, 1057 (2006).
   Fr-Lr: K. Eichkorn, F. Weigend, O. Treutler, R. Ahlrichs; Theor. Chem. Acc. 97, 119 (1997).

================================================================================
                                        WARNINGS
                       Please study these warnings very carefully!
================================================================================

WARNING: Old DensityContainer found on disk!
         Will remove this file - 
         If you want to keep old densities, please start your calculation with a different basename. 


================================================================================
 STARTING AUTOMATIC FRAGMENTATION: 
================================================================================

WARNING: Geometry Optimization
  ===> : Switching off AutoStart
         For restart on a previous wavefunction, please use MOREAD

INFO   : The exchange functional is Grimme's B97(-D)
         As described in S. Grimme, J. Comput. Chem. 27, 1787 (2006).
         Note that this functional defaults to a pure GGA. 

INFO   : The correlation functional is Grimme's B97(-D)
         As described in S. Grimme, J. Comput. Chem. 27, 1787 (2006).

WARNING: Found SCFConvIgnored == true
  ===> : Will try to continue after any unconverged SCF -
         no matter how far from convergence the wavefunction might be.

         Please be very careful with your results!


================================================================================
                                       INPUT FILE
================================================================================
NAME = a.inp
|  1> ! B97-D 6-31G** goat
|  2> 
|  3> * xyzfile 0 1 /home/vivek/mm-project/vivek/xtb-goat/xtb-goat/a/a-input-coordinates.xyz
|  4> 
|  5>                          ****END OF INPUT****
================================================================================

                       *****************************
                       * Geometry Optimization Run *
                       *****************************


                       *********************************
                       *              GOAT             *
                       * Global Optimization Algorithm *
                       *********************************

Geometry optimization settings:
Update method            Update   .... BFGS
Choice of coordinates    CoordSys .... (2022) Redundant Internals
Initial Hessian          InHess   .... Almloef's Model
Max. no of cycles        MaxIter  .... 50

Convergence Tolerances:
Energy Change            TolE     ....  5.0000e-06 Eh
Max. Gradient            TolMAXG  ....  3.0000e-04 Eh/bohr
RMS Gradient             TolRMSG  ....  1.0000e-04 Eh/bohr
Max. Displacement        TolMAXD  ....  4.0000e-03 bohr
RMS Displacement         TolRMSD  ....  2.0000e-03 bohr
Strict Convergence                .... True

------------------------------------------------------------------------------
                        ORCA OPTIMIZATION COORDINATE SETUP
------------------------------------------------------------------------------

The optimization will be done in redundant internal coordinates (2022)
Making redundant internal coordinates   ...  (2022 redundants) done
Evaluating the initial hessian          ...  (Almloef) done
Evaluating the coordinates              ...  done
Calculating the B-matrix                .... done
Calculating the G-matrix                .... done
The number of degrees of freedom        ....   51

    -----------------------------------------------------------------
                    Redundant Internal Coordinates


    -----------------------------------------------------------------
         Definition                    Initial Value    Approx d2E/dq
    -----------------------------------------------------------------
      1. B(O   1,C   0)                  1.2224         1.035701   
      2. B(O   2,C   0)                  1.3549         0.636666   
      3. B(C   3,C   0)                  1.5381         0.362676   
      4. B(H   4,O   2)                  0.9743         0.493302   
      5. B(C   5,C   3)                  1.5229         0.383431   
      6. B(H   6,C   5)                  1.0956         0.352710   
      7. B(N   7,C   3)                  1.4742         0.410712   
      8. B(N   7,H   4)                  2.0322         0.010125   
      9. B(H   8,C   5)                  1.0962         0.352043   
     10. B(H   9,C   5)                  1.0954         0.352997   
     11. B(H  10,C   3)                  1.0953         0.353110   
     12. B(H  11,N   7)                  1.0160         0.423259   
     13. B(H  12,N   7)                  1.0158         0.423642   
     14. A(O   1,C   0,C   3)          124.2306         0.429442   
     15. A(O   2,C   0,C   3)          113.8054         0.393939   
     16. A(O   1,C   0,O   2)          121.9638         0.472504   
     17. A(C   0,O   2,H   4)          109.8815         0.368460   
     18. A(C   0,C   3,H  10)          107.1118         0.321712   
     19. A(C   0,C   3,N   7)          112.9345         0.365137   
     20. A(C   0,C   3,C   5)          109.6948         0.363130   
     21. A(C   5,C   3,N   7)          109.1938         0.368637   
     22. A(N   7,C   3,H  10)          107.7862         0.326387   
     23. A(C   5,C   3,H  10)          110.0686         0.324662   
     24. A(H   8,C   5,H   9)          108.2354         0.288905   
     25. A(H   6,C   5,H   9)          107.6885         0.288991   
     26. A(C   3,C   5,H   6)          110.8622         0.324602   
     27. A(C   3,C   5,H   9)          111.1272         0.324645   
     28. A(H   6,C   5,H   8)          107.2772         0.288868   
     29. A(C   3,C   5,H   8)          111.4786         0.324501   
     30. A(H  11,N   7,H  12)          114.7844         0.301170   
     31. A(C   3,N   7,H  12)          114.1458         0.333494   
     32. A(C   3,N   7,H  11)          114.3373         0.333444   
     33. D(H   4,O   2,C   0,O   1)   -179.2196         0.029858   
     34. D(H   4,O   2,C   0,C   3)      0.6853         0.029858   
     35. D(N   7,C   3,C   0,O   1)    179.9159         0.010000   
     36. D(N   7,C   3,C   0,O   2)      0.0135         0.010000   
     37. D(C   5,C   3,C   0,O   2)   -122.0340         0.010000   
     38. D(H  10,C   3,C   0,O   1)    -61.5739         0.010000   
     39. D(C   5,C   3,C   0,O   1)     57.8684         0.010000   
     40. D(H   8,C   5,C   3,H  10)    179.5001         0.011707   
     41. D(H   8,C   5,C   3,N   7)    -62.3662         0.011707   
     42. D(H   8,C   5,C   3,C   0)     61.8875         0.011707   
     43. D(H   6,C   5,C   3,H  10)     60.0603         0.011707   
     44. D(H   6,C   5,C   3,N   7)    178.1939         0.011707   
     45. D(H   6,C   5,C   3,C   0)    -57.5523         0.011707   
     46. D(H  11,N   7,C   3,C   5)     53.5379         0.015409   
     47. D(H  11,N   7,C   3,C   0)    -68.7906         0.015409   
     48. D(H  12,N   7,C   3,H  10)    -51.9189         0.015409   
     49. D(H  12,N   7,C   3,C   5)   -171.4738         0.015409   
     50. D(H  12,N   7,C   3,C   0)     66.1978         0.015409   
     51. D(H  11,N   7,C   3,H  10)    173.0927         0.015409   
    -----------------------------------------------------------------

Number of atoms                         .... 13
Number of degrees of freedom            .... 51


         *************************************************************
         *                GEOMETRY OPTIMIZATION CYCLE   1            *
         *************************************************************
---------------------------------
CARTESIAN COORDINATES (ANGSTROEM)
---------------------------------
  C     -4.559017    0.468993   -2.511208
  O     -4.392121    1.311686   -3.380881
  O     -3.524101   -0.050535   -1.807836
  C     -5.930163   -0.101386   -2.110892
  H     -3.853867   -0.711857   -1.172843
  C     -6.600362   -0.727516   -3.326644
  H     -6.708349    0.005771   -4.133530
  N     -5.842792   -1.105318   -1.034901
  H     -6.012440   -1.563478   -3.722979
  H     -7.600524   -1.099082   -3.078519
  H     -6.531432    0.735514   -1.739631
  H     -5.397842   -1.976298   -1.310019
  H     -5.532711   -0.732065   -0.142540

----------------------------
CARTESIAN COORDINATES (A.U.)
----------------------------
  NO LB      ZA    FRAG     MASS         X           Y           Z
   0 C     6.0000    1    12.011   -8.615294    0.886268   -4.745495
   1 O     8.0000    1    15.999   -8.299906    2.478727   -6.388939
   2 O     8.0000    1    15.999   -6.659586   -0.095497   -3.416315
   3 C     6.0000    1    12.011  -11.206384   -0.191592   -3.989008
   4 H     1.0000    1     1.008   -7.282753   -1.345215   -2.216352
   5 C     6.0000    1    12.011  -12.472877   -1.374806   -6.286446
   6 H     1.0000    1     1.008  -12.676942    0.010906   -7.811240
   7 N     7.0000    1    14.007  -11.041277   -2.088748   -1.955679
   8 H     1.0000    1     1.008  -11.361865   -2.954545   -7.035411
   9 H     1.0000    1     1.008  -14.362909   -2.076964   -5.817558
  10 H     1.0000    1     1.008  -12.342618    1.389920   -3.287426
  11 H     1.0000    1     1.008  -10.200443   -3.734662   -2.475577
  12 H     1.0000    1     1.008  -10.455309   -1.383402   -0.269362

----------------------------------------------
CARTESIAN COORDINATES OF FRAGMENTS (ANGSTROEM)
----------------------------------------------

 FRAGMENT 1 
  C    -4.559017    0.468993   -2.511208
  O    -4.392121    1.311686   -3.380881
  O    -3.524101   -0.050535   -1.807836
  C    -5.930163   -0.101386   -2.110892
  H    -3.853867   -0.711857   -1.172843
  C    -6.600362   -0.727516   -3.326644
  H    -6.708349    0.005771   -4.133530
  N    -5.842792   -1.105318   -1.034901
  H    -6.012440   -1.563478   -3.722979
  H    -7.600524   -1.099082   -3.078519
  H    -6.531432    0.735514   -1.739631
  H    -5.397842   -1.976298   -1.310019
  H    -5.532711   -0.732065   -0.142540

--------------------------------
INTERNAL COORDINATES (ANGSTROEM)
--------------------------------
 C      0   0   0     0.000000000000     0.00000000     0.00000000
 O      1   0   0     1.222422551327     0.00000000     0.00000000
 O      1   2   0     1.354877352466   121.96383756     0.00000000
 C      1   2   3     1.538059315115   124.23063901   180.10527568
 H      3   1   2     0.974324644299   109.88152393   180.78040009
 C      4   1   2     1.522911160247   109.69479188    57.86840489
 H      6   4   1     1.095644118103   110.86219000   302.44773070
 N      4   1   2     1.474201405625   112.93447231   179.91589931
 H      6   4   1     1.096159740071   111.47864164    61.88754389
 H      6   4   1     1.095422901999   111.12723034   182.72155261
 H      4   1   2     1.095335907602   107.11180858   298.42607434
 H      8   4   1     1.016010126339   114.33728724   291.20943488
 H      8   4   1     1.015763842087   114.14583506    66.19776657

---------------------------
INTERNAL COORDINATES (A.U.)
---------------------------
 C      0   0   0     0.000000000000     0.00000000     0.00000000
 O      1   0   0     2.310043841938     0.00000000     0.00000000
 O      1   2   0     2.560347141212   121.96383756     0.00000000
 C      1   2   3     2.906510883294   124.23063901   180.10527568
 H      3   1   2     1.841206743256   109.88152393   180.78040009
 C      4   1   2     2.877885019159   109.69479188    57.86840489
 H      6   4   1     2.070467323457   110.86219000   302.44773070
 N      4   1   2     2.785836922873   112.93447231   179.91589931
 H      6   4   1     2.071441707765   111.47864164    61.88754389
 H      6   4   1     2.070049285604   111.12723034   182.72155261
 H      4   1   2     2.069884890018   107.11180858   298.42607434
 H      8   4   1     1.919980888072   114.33728724   291.20943488
 H      8   4   1     1.919515478284   114.14583506    66.19776657

---------------------
BASIS SET INFORMATION
---------------------
There are 4 groups of distinct atoms

 Group   1 Type C   : 10s4p1d contracted to 3s2p1d pattern {631/31/1}
 Group   2 Type O   : 10s4p1d contracted to 3s2p1d pattern {631/31/1}
 Group   3 Type H   : 4s1p contracted to 2s1p pattern {31/1}
 Group   4 Type N   : 10s4p1d contracted to 3s2p1d pattern {631/31/1}

Atom   0C    basis set group =>   1
Atom   1O    basis set group =>   2
Atom   2O    basis set group =>   2
Atom   3C    basis set group =>   1
Atom   4H    basis set group =>   3
Atom   5C    basis set group =>   1
Atom   6H    basis set group =>   3
Atom   7N    basis set group =>   4
Atom   8H    basis set group =>   3
Atom   9H    basis set group =>   3
Atom  10H    basis set group =>   3
Atom  11H    basis set group =>   3
Atom  12H    basis set group =>   3
---------------------------------
AUXILIARY/J BASIS SET INFORMATION
---------------------------------
There are 4 groups of distinct atoms

 Group   1 Type C   : 12s5p4d2f1g contracted to 6s4p3d1f1g pattern {711111/2111/211/2/1}
 Group   2 Type O   : 12s5p4d2f1g contracted to 6s4p3d1f1g pattern {711111/2111/211/2/1}
 Group   3 Type H   : 5s2p1d contracted to 3s1p1d pattern {311/2/1}
 Group   4 Type N   : 12s5p4d2f1g contracted to 6s4p3d1f1g pattern {711111/2111/211/2/1}

Atom   0C    basis set group =>   1
Atom   1O    basis set group =>   2
Atom   2O    basis set group =>   2
Atom   3C    basis set group =>   1
Atom   4H    basis set group =>   3
Atom   5C    basis set group =>   1
Atom   6H    basis set group =>   3
Atom   7N    basis set group =>   4
Atom   8H    basis set group =>   3
Atom   9H    basis set group =>   3
Atom  10H    basis set group =>   3
Atom  11H    basis set group =>   3
Atom  12H    basis set group =>   3
------------------------------------------------------------------------------
                             ORCA STARTUP CALCULATIONS
                           -- RI-GTO INTEGRALS CHOSEN --
------------------------------------------------------------------------------
------------------------------------------------------------------------------
                   ___                                                        
                  /   \      - P O W E R E D   B Y -                         
                 /     \                                                     
                 |  |  |   _    _      __       _____    __    __             
                 |  |  |  | |  | |    /  \     |  _  \  |  |  /  |          
                  \  \/   | |  | |   /    \    | | | |  |  | /  /          
                 / \  \   | |__| |  /  /\  \   | |_| |  |  |/  /          
                |  |  |   |  __  | /  /__\  \  |    /   |      \           
                |  |  |   | |  | | |   __   |  |    \   |  |\   \          
                \     /   | |  | | |  |  |  |  | |\  \  |  | \   \       
                 \___/    |_|  |_| |__|  |__|  |_| \__\ |__|  \__/        
                                                                              
                      - O R C A' S   B I G   F R I E N D -                    
                                      &                                       
                       - I N T E G R A L  F E E D E R -                       
                                                                              
 v1 FN, 2020, v2 2021, v3 2022-2024                                           
------------------------------------------------------------------------------


----------------------
SHARK INTEGRAL PACKAGE
----------------------

Number of atoms                             ...     13
Number of basis functions                   ...    119
Number of shells                            ...     57
Maximum angular momentum                    ...      2
Integral batch strategy                     ... SHARK/LIBINT Hybrid
RI-J (if used) integral strategy            ... SPLIT-RIJ (Revised 2003 algorithm where possible)
Printlevel                                  ...      1
Contraction scheme used                     ... SEGMENTED contraction
Prescreening option                         ... SCHWARTZ
   Thresh                                   ... 2.500e-11
   Tcut                                     ... 2.500e-12
   Tpresel                                  ... 2.500e-12 
Coulomb Range Separation                    ... NOT USED
Exchange Range Separation                   ... NOT USED
Multipole approximations                    ... NOT USED
Finite Nucleus Model                        ... NOT USED
CABS basis                                  ... NOT available
Auxiliary Coulomb fitting basis             ... AVAILABLE
   # of basis functions in Aux-J            ...    371
   # of shells in Aux-J                     ...    125
   Maximum angular momentum in Aux-J        ...      4
Auxiliary J/K fitting basis                 ... NOT available
Auxiliary Correlation fitting basis         ... NOT available
Auxiliary 'external' fitting basis          ... NOT available

Checking pre-screening integrals            ... done (  0.0 sec) Dimension = 57
   => SHARK Basis and OBASIS are compatible. Storing Pre-screening
Shell pair information
Shell pair cut-off parameter TPreSel        ...   2.5e-12
Total number of shell pairs                 ...      1653
Shell pairs after pre-screening             ...      1604
Total number of primitive shell pairs       ...      8022
Primitive shell pairs kept                  ...      5618
          la=0 lb=0:    509 shell pairs
          la=1 lb=0:    587 shell pairs
          la=1 lb=1:    184 shell pairs
          la=2 lb=0:    189 shell pairs
          la=2 lb=1:    114 shell pairs
          la=2 lb=2:     21 shell pairs

Checking whether 4 symmetric matrices of dimension 119 fit in memory
:Max Core in MB      =   4096.00
 MB in use           =      5.54
 MB left             =   4090.46
 MB needed           =      0.22
 Data fit in memory  = YES
Calculating RI/J V-Matrix + Cholesky decomp.... done (  0.0 sec)
Calculating Nuclear repulsion               ... done (  0.0 sec) ENN=    249.260669087069 Eh

Diagonalization of the overlap matrix:
Smallest eigenvalue                        ... 3.474e-03
Time for diagonalization                   ...    0.001 sec
Threshold for overlap eigenvalues          ... 1.000e-07
Number of eigenvalues below threshold      ... 0
Time for construction of square roots      ...    0.000 sec
Total time needed                          ...    0.001 sec

-------------------
DFT GRID GENERATION
-------------------

General Integration Accuracy     IntAcc      ... 4.388
Radial Grid Type                 RadialGrid  ... OptM3 with GC (2021)
Angular Grid (max. ang.)         AngularGrid ... 4 (Lebedev-302)
Angular grid pruning method      GridPruning ... 4 (adaptive)
Weight generation scheme         WeightScheme... mBecke (2022)
Basis function cutoff            BFCut       ... 1.0000e-11
Integration weight cutoff        WCut        ... 1.0000e-14
Partially contracted basis set               ... off
Rotationally invariant grid construction     ... off
Angular grids for H and He will be reduced by one unit

Total number of grid points                  ...    58911
Total number of batches                      ...      927
Average number of points per batch           ...       63
Average number of grid points per atom       ...     4532
Grids setup in   0.2 sec
Initializing property integral containers    ... done (  0.0 sec)

SHARK setup successfully completed in   0.2 seconds

Maximum memory used throughout the entire STARTUP-calculation: 24.8 MB
-------------------------------------------------------------------------------
                                 ORCA GUESS
                   Start orbitals & Density for SCF / CASSCF
-------------------------------------------------------------------------------

------------
SCF SETTINGS
------------
Hamiltonian:
 Density Functional     Method          .... DFT(GTOs)
 Exchange Functional    Exchange        .... B97(D)
 Correlation Functional Correlation     .... B97(D)
 Gradients option       PostSCFGGA      .... off
 RI-approximation to the Coulomb term is turned on
   Number of AuxJ basis functions       .... 371


General Settings:
 Integral files         IntName         .... a
 Hartree-Fock type      HFTyp           .... RHF
 Total Charge           Charge          ....    0
 Multiplicity           Mult            ....    1
 Number of Electrons    NEL             ....   48
 Basis Dimension        Dim             ....  119
 Nuclear Repulsion      ENuc            ....    249.2606690871 Eh

Convergence Acceleration:
 AO-DIIS                CNVDIIS         .... on
   Start iteration      DIISMaxIt       ....    12
   Startup error        DIISStart       ....  0.200000
   # of expansion vecs  DIISMaxEq       ....     5
   Bias factor          DIISBfac        ....   1.050
   Max. coefficient     DIISMaxC        ....  10.000
 MO-DIIS                CNVKDIIS        .... off
 Trust-Rad. Augm. Hess. CNVTRAH         .... auto
   Auto Start mean grad. ratio tolernc. ....  1.125000
   Auto Start start iteration           ....    50
   Auto Start num. interpolation iter.  ....    10
   Max. Number of Micro iterations      ....    24
   Max. Number of Macro iterations      .... Maxiter - #DIIS iter
   Number of Davidson start vectors     ....     2
   Converg. threshold    (grad. norm)   ....   1.000e-05
   Grad. Scal. Fac. for Micro threshold ....   0.100
   Minimum threshold for Micro iter.    ....   1.000e-02
   NR start threshold (gradient norm)   ....   1.000e-04
   Initial trust radius                 ....   0.400
   Minimum AH scaling param. (alpha)    ....   1.000
   Maximum AH scaling param. (alpha)    .... 1000.000
   Quad. conv. algorithm                .... NR
   White noise on init. David. guess    .... on
   Maximum white noise                  ....   0.010
   Pseudo random numbers                .... off
   Inactive MOs                         .... canonical
   Orbital update algorithm             .... Taylor
   Preconditioner                       .... Diag
   Full preconditioner red. dimension   ....   250
 SOSCF                 CNVSOSCF           .... on
   Start iteration     SOSCFMaxIt         ....   150
   Startup grad/error  SOSCFStart         ....  0.003300
   Hessian update      SOSCFHessUp        .... L-BFGS
   Autom. constraints  SOSCFAutoConstrain .... off
 Level Shifting         CNVShift        .... on
   Level shift para.    LevelShift      ....    0.2500
   Turn off err/grad.   ShiftErr        ....    0.0010
 Zerner damping         CNVZerner       .... off
 Static damping         CNVDamp         .... on
   Fraction old density DampFac         ....    0.7000
   Max. Damping (<1)    DampMax         ....    0.9800
   Min. Damping (>=0)   DampMin         ....    0.0000
   Turn off err/grad.   DampErr         ....    0.1000

SCF Procedure:
 Maximum # iterations   MaxIter         ....   125
 SCF integral mode      SCFMode         .... Direct
   Integral package                     .... SHARK and LIBINT hybrid scheme
 Reset frequency        DirectResetFreq ....    20
 Integral Threshold     Thresh          ....  2.500e-11 Eh
 Primitive CutOff       TCut            ....  2.500e-12 Eh

Convergence Tolerance:
 Convergence Check Mode ConvCheckMode   .... Total+1el-Energy
 Convergence forced     ConvForced      .... -1
 Energy Change          TolE            ....  1.000e-08 Eh
 1-El. energy change                    ....  1.000e-05 Eh
 Orbital Gradient       TolG            ....  1.000e-05
 Orbital Rotation angle TolX            ....  1.000e-05
 DIIS Error             TolErr          ....  5.000e-07

------------------------------
INITIAL GUESS: MODEL POTENTIAL
------------------------------
Loading Hartree-Fock densities                     ... done
Calculating cut-offs                               ... done
Initializing the effective Hamiltonian             ... done
Setting up the integral package (SHARK)            ... done
Starting the Coulomb interaction                   ... done (   0.0 sec)
Making the grid                                    ... done (   0.0 sec)
Mapping shells                                     ... done
Starting the XC term evaluation                    ... done (   0.0 sec)
  promolecular density results
     # of electrons  =     47.998799358
     EX              =    -39.835457893
     EC              =     -2.125017400
     EX+EC           =    -41.960475294
Transforming the Hamiltonian                       ... done (   0.0 sec)
Diagonalizing the Hamiltonian                      ... done (   0.0 sec)
Back transforming the eigenvectors                 ... done (   0.0 sec)
Now organizing SCF variables                       ... done
                      ------------------
                      INITIAL GUESS DONE (   0.1 sec)
                      ------------------
             **** ENERGY FILE WAS UPDATED (a.en.tmp) ****
Finished Guess after   0.1 sec
Maximum memory used throughout the entire GUESS-calculation: 9.4 MB
Warning: Unable to find asked property in file 'a.property.txt'

-------------------------------------------------------------------------------------------
                                      ORCA LEAN-SCF
                              memory conserving SCF solver
-------------------------------------------------------------------------------------------

----------------------------------------D-I-I-S--------------------------------------------
Iteration    Energy (Eh)           Delta-E    RMSDP     MaxDP     DIISErr   Damp  Time(sec)
-------------------------------------------------------------------------------------------
               ***  Starting incremental Fock matrix formation  ***
    1    -323.2533973333696622     0.00e+00  5.17e-03  1.02e-01  2.57e-01  0.700   0.2
    2    -323.3901543642892875    -1.37e-01  3.05e-03  5.47e-02  9.88e-02  0.700   0.2
                               ***Turning on AO-DIIS***
    3    -323.4284012312405139    -3.82e-02  1.10e-03  1.63e-02  2.62e-02  0.700   0.2
    4    -323.4552706523311372    -2.69e-02  1.47e-03  1.96e-02  2.22e-02  0.000   0.2
    5    -323.5184725495762450    -6.32e-02  5.18e-04  8.10e-03  1.05e-02  0.000   0.2
                              *** Initializing SOSCF ***
---------------------------------------S-O-S-C-F--------------------------------------
Iteration    Energy (Eh)           Delta-E    RMSDP     MaxDP     MaxGrad    Time(sec)
--------------------------------------------------------------------------------------
    6    -323.5191569977765766    -6.84e-04  1.81e-04  2.57e-03  3.10e-03     0.2
               *** Restarting incremental Fock matrix formation ***
    7    -323.5192073198793423    -5.03e-05  1.54e-04  2.23e-03  6.39e-04     0.2
    8    -323.5191933841789478     1.39e-05  8.77e-05  1.85e-03  1.92e-03     0.2
    9    -323.5192133699174519    -2.00e-05  6.80e-05  9.92e-04  4.07e-04     0.2
   10    -323.5192104795709156     2.89e-06  4.01e-05  5.72e-04  3.55e-04     0.2
   11    -323.5192152111442283    -4.73e-06  1.47e-05  2.96e-04  5.16e-05     0.2
   12    -323.5192150803360391     1.31e-07  8.86e-06  1.96e-04  8.97e-05     0.2
   13    -323.5192152945936641    -2.14e-07  2.52e-06  6.51e-05  1.03e-05     0.2
   14    -323.5192152893960156     5.20e-09  1.56e-06  4.52e-05  1.56e-05     0.2
                 **** Energy Check signals convergence ****

               *****************************************************
               *                     SUCCESS                       *
               *           SCF CONVERGED AFTER  14 CYCLES          *
               *****************************************************

             **** ENERGY FILE WAS UPDATED (a.en.tmp) ****

----------------
TOTAL SCF ENERGY
----------------

Total Energy       :       -323.51921529745471 Eh           -8803.40540 eV

Components:
Nuclear Repulsion  :        249.26066908706932 Eh            6782.72763 eV
Electronic Energy  :       -572.77988438452405 Eh          -15586.13304 eV
One Electron Energy:       -934.73152295318971 Eh          -25435.33785 eV
Two Electron Energy:        361.95163856866566 Eh            9849.20481 eV

Virial components:
Potential Energy   :       -645.17927852332946 Eh          -17556.22071 eV
Kinetic Energy     :        321.66006322587481 Eh            8752.81530 eV
Virial Ratio       :          2.00577986602668

DFT components:
N(Alpha)           :       24.000030947019 electrons
N(Beta)            :       24.000030947019 electrons
N(Total)           :       48.000061894037 electrons
E(X)               :      -40.718050402926 Eh       
E(C)               :       -2.116303291451 Eh       
E(XC)              :      -42.834353694377 Eh       

---------------
SCF CONVERGENCE
---------------

  Last Energy change         ...   -5.1976e-09  Tolerance :   1.0000e-08
  Last MAX-Density change    ...    4.5163e-05  Tolerance :   1.0000e-07
  Last RMS-Density change    ...    1.5624e-06  Tolerance :   5.0000e-09
  Last DIIS Error            ...    3.0951e-03  Tolerance :   5.0000e-07
  Last Orbital Gradient      ...    1.5642e-05  Tolerance :   1.0000e-05
  Last Orbital Rotation      ...    1.3112e-05  Tolerance :   1.0000e-05


----------------
ORBITAL ENERGIES
----------------

  NO   OCC          E(Eh)            E(eV) 
   0   2.0000     -18.805477      -511.7230 
   1   2.0000     -18.744665      -510.0683 
   2   2.0000     -14.019566      -381.4918 
   3   2.0000     -10.026050      -272.8227 
   4   2.0000      -9.965031      -271.1623 
   5   2.0000      -9.913604      -269.7629 
   6   2.0000      -1.002376       -27.2760 
   7   2.0000      -0.920014       -25.0349 
   8   2.0000      -0.831803       -22.6345 
   9   2.0000      -0.690311       -18.7843 
  10   2.0000      -0.593504       -16.1501 
  11   2.0000      -0.543969       -14.8021 
  12   2.0000      -0.484657       -13.1882 
  13   2.0000      -0.472493       -12.8572 
  14   2.0000      -0.417571       -11.3627 
  15   2.0000      -0.389337       -10.5944 
  16   2.0000      -0.372478       -10.1356 
  17   2.0000      -0.357244        -9.7211 
  18   2.0000      -0.338798        -9.2192 
  19   2.0000      -0.328314        -8.9339 
  20   2.0000      -0.307780        -8.3751 
  21   2.0000      -0.261118        -7.1054 
  22   2.0000      -0.246399        -6.7049 
  23   2.0000      -0.195165        -5.3107 
  24   0.0000      -0.019579        -0.5328 
  25   0.0000       0.023980         0.6525 
  26   0.0000       0.086221         2.3462 
  27   0.0000       0.099872         2.7176 
  28   0.0000       0.104797         2.8517 
  29   0.0000       0.129204         3.5158 
  30   0.0000       0.139901         3.8069 
  31   0.0000       0.149289         4.0624 
  32   0.0000       0.169003         4.5988 
  33   0.0000       0.194249         5.2858 
  34   0.0000       0.217565         5.9203 
*Only the first 10 virtual orbitals were printed.

                    ********************************
                    * MULLIKEN POPULATION ANALYSIS *
                    ********************************

-------------------------
MULLIKEN FRAGMENT CHARGES
-------------------------
 Fragment   0 :   0.000000
Sum of fragment charges:    0.0000000

---------------------------------
MULLIKEN FRAGMENT OVERLAP CHARGES
---------------------------------
                  0    
      0      55.033298

-----------------------
MULLIKEN ATOMIC CHARGES
-----------------------
   0 C :    0.532906
   1 O :   -0.418512
   2 O :   -0.452347
   3 C :   -0.062619
   4 H :    0.280312
   5 C :   -0.322988
   6 H :    0.145585
   7 N :   -0.598817
   8 H :    0.110484
   9 H :    0.127548
  10 H :    0.149688
  11 H :    0.253196
  12 H :    0.255564
Sum of atomic charges:    0.0000000

--------------------------------
MULLIKEN REDUCED ORBITAL CHARGES
--------------------------------
  0 C s       :     3.001654  s :     3.001654
      pz      :     0.756850  p :     2.346951
      px      :     0.808990
      py      :     0.781111
      dz2     :     0.023166  d :     0.118489
      dxz     :     0.031208
      dyz     :     0.016584
      dx2y2   :     0.018930
      dxy     :     0.028600

  1 O s       :     3.879524  s :     3.879524
      pz      :     1.376872  p :     4.511784
      px      :     1.761672
      py      :     1.373240
      dz2     :     0.008172  d :     0.027203
      dxz     :     0.003769
      dyz     :     0.007140
      dx2y2   :     0.004596
      dxy     :     0.003526

  2 O s       :     3.832729  s :     3.832729
      pz      :     1.492896  p :     4.596284
      px      :     1.574112
      py      :     1.529275
      dz2     :     0.002293  d :     0.023334
      dxz     :     0.006720
      dyz     :     0.003098
      dx2y2   :     0.005046
      dxy     :     0.006178

  3 C s       :     3.211536  s :     3.211536
      pz      :     0.888348  p :     2.795727
      px      :     0.973843
      py      :     0.933536
      dz2     :     0.009705  d :     0.055356
      dxz     :     0.010691
      dyz     :     0.014878
      dx2y2   :     0.007548
      dxy     :     0.012534

  4 H s       :     0.679982  s :     0.679982
      pz      :     0.014231  p :     0.039706
      px      :     0.010421
      py      :     0.015054

  5 C s       :     3.256987  s :     3.256987
      pz      :     0.974158  p :     3.037061
      px      :     1.027189
      py      :     1.035715
      dz2     :     0.004788  d :     0.028940
      dxz     :     0.004497
      dyz     :     0.008740
      dx2y2   :     0.004619
      dxy     :     0.006295

  6 H s       :     0.842957  s :     0.842957
      pz      :     0.004612  p :     0.011458
      px      :     0.002529
      py      :     0.004318

  7 N s       :     3.575061  s :     3.575061
      pz      :     1.130884  p :     3.998584
      px      :     1.706673
      py      :     1.161027
      dz2     :     0.005714  d :     0.025173
      dxz     :     0.004705
      dyz     :     0.005993
      dx2y2   :     0.002658
      dxy     :     0.006103

  8 H s       :     0.878011  s :     0.878011
      pz      :     0.003186  p :     0.011505
      px      :     0.003477
      py      :     0.004841

  9 H s       :     0.861115  s :     0.861115
      pz      :     0.002542  p :     0.011337
      px      :     0.005797
      py      :     0.002998

 10 H s       :     0.839256  s :     0.839256
      pz      :     0.002419  p :     0.011056
      px      :     0.003901
      py      :     0.004737

 11 H s       :     0.722255  s :     0.722255
      pz      :     0.004599  p :     0.024549
      px      :     0.009272
      py      :     0.010679

 12 H s       :     0.719911  s :     0.719911
      pz      :     0.010591  p :     0.024525
      px      :     0.008734
      py      :     0.005200



                     *******************************
                     * LOEWDIN POPULATION ANALYSIS *
                     *******************************

------------------------
LOEWDIN FRAGMENT CHARGES
------------------------
 Fragment   0 :   0.000000

----------------------------
LOEWDIN FRAGMENT BOND ORDERS
----------------------------
                  0    
      0      77.586493

----------------------
LOEWDIN ATOMIC CHARGES
----------------------
   0 C :    0.121915
   1 O :   -0.217559
   2 O :   -0.149400
   3 C :   -0.054493
   4 H :    0.151963
   5 C :   -0.190289
   6 H :    0.089823
   7 N :   -0.253149
   8 H :    0.072228
   9 H :    0.079740
  10 H :    0.093613
  11 H :    0.127707
  12 H :    0.127903

-------------------------------
LOEWDIN REDUCED ORBITAL CHARGES
-------------------------------
  0 C s       :     2.872866  s :     2.872866
      pz      :     0.884394  p :     2.723062
      px      :     0.952185
      py      :     0.886483
      dz2     :     0.051838  d :     0.282157
      dxz     :     0.075893
      dyz     :     0.042848
      dx2y2   :     0.042986
      dxy     :     0.068592

  1 O s       :     3.570137  s :     3.570137
      pz      :     1.428500  p :     4.592562
      px      :     1.745229
      py      :     1.418832
      dz2     :     0.012373  d :     0.054860
      dxz     :     0.007317
      dyz     :     0.019844
      dx2y2   :     0.008489
      dxy     :     0.006838

  2 O s       :     3.482191  s :     3.482191
      pz      :     1.490485  p :     4.616317
      px      :     1.603875
      py      :     1.521957
      dz2     :     0.005129  d :     0.050892
      dxz     :     0.014211
      dyz     :     0.009775
      dx2y2   :     0.010542
      dxy     :     0.011236

  3 C s       :     2.892134  s :     2.892134
      pz      :     0.983436  p :     3.036863
      px      :     1.049953
      py      :     1.003474
      dz2     :     0.020688  d :     0.125496
      dxz     :     0.024627
      dyz     :     0.035086
      dx2y2   :     0.016764
      dxy     :     0.028330

  4 H s       :     0.721889  s :     0.721889
      pz      :     0.045168  p :     0.126147
      px      :     0.032428
      py      :     0.048551

  5 C s       :     2.922505  s :     2.922505
      pz      :     1.045564  p :     3.205624
      px      :     1.076333
      py      :     1.083727
      dz2     :     0.010479  d :     0.062160
      dxz     :     0.010805
      dyz     :     0.018576
      dx2y2   :     0.009274
      dxy     :     0.013026

  6 H s       :     0.870314  s :     0.870314
      pz      :     0.017345  p :     0.039862
      px      :     0.007050
      py      :     0.015468

  7 N s       :     3.175815  s :     3.175815
      pz      :     1.164560  p :     4.024388
      px      :     1.668279
      py      :     1.191548
      dz2     :     0.013635  d :     0.052947
      dxz     :     0.007652
      dyz     :     0.016652
      dx2y2   :     0.005046
      dxy     :     0.009962

  8 H s       :     0.888927  s :     0.888927
      pz      :     0.009602  p :     0.038846
      px      :     0.011740
      py      :     0.017503

  9 H s       :     0.880928  s :     0.880928
      pz      :     0.007578  p :     0.039332
      px      :     0.022615
      py      :     0.009139

 10 H s       :     0.867200  s :     0.867200
      pz      :     0.007826  p :     0.039187
      px      :     0.013904
      py      :     0.017457

 11 H s       :     0.790240  s :     0.790240
      pz      :     0.013301  p :     0.082053
      px      :     0.030260
      py      :     0.038492

 12 H s       :     0.790125  s :     0.790125
      pz      :     0.038626  p :     0.081972
      px      :     0.027439
      py      :     0.015907



                      *****************************
                      * MAYER POPULATION ANALYSIS *
                      *****************************

  NA   - Mulliken gross atomic population
  ZA   - Total nuclear charge
  QA   - Mulliken gross atomic charge
  VA   - Mayer's total valence
  BVA  - Mayer's bonded valence
  FA   - Mayer's free valence

  ATOM       NA         ZA         QA         VA         BVA        FA
  0 C      5.4671     6.0000     0.5329     3.9207     3.9207     0.0000
  1 O      8.4185     8.0000    -0.4185     2.1005     2.1005    -0.0000
  2 O      8.4523     8.0000    -0.4523     2.0400     2.0400    -0.0000
  3 C      6.0626     6.0000    -0.0626     3.8302     3.8302     0.0000
  4 H      0.7197     1.0000     0.2803     0.9694     0.9694     0.0000
  5 C      6.3230     6.0000    -0.3230     3.8723     3.8723    -0.0000
  6 H      0.8544     1.0000     0.1456     0.9563     0.9563     0.0000
  7 N      7.5988     7.0000    -0.5988     2.9024     2.9024     0.0000
  8 H      0.8895     1.0000     0.1105     0.9566     0.9566     0.0000
  9 H      0.8725     1.0000     0.1275     0.9537     0.9537    -0.0000
 10 H      0.8503     1.0000     0.1497     0.9429     0.9429     0.0000
 11 H      0.7468     1.0000     0.2532     0.9251     0.9251     0.0000
 12 H      0.7444     1.0000     0.2556     0.9216     0.9216     0.0000

  Mayer bond orders larger than 0.100000
B(  0-C ,  1-O ) :   1.9060 B(  0-C ,  2-O ) :   1.0863 B(  0-C ,  3-C ) :   0.9006 
B(  1-O ,  2-O ) :   0.1007 B(  2-O ,  4-H ) :   0.8074 B(  3-C ,  5-C ) :   1.0014 
B(  3-C ,  7-N ) :   0.9627 B(  3-C , 10-H ) :   0.9268 B(  4-H ,  7-N ) :   0.1215 
B(  5-C ,  6-H ) :   0.9485 B(  5-C ,  8-H ) :   0.9577 B(  5-C ,  9-H ) :   0.9534 
B(  7-N , 11-H ) :   0.8946 B(  7-N , 12-H ) :   0.8970 

-------
TIMINGS
-------

Total SCF time: 0 days 0 hours 0 min 3 sec 

Total time                  ....       3.266 sec
Sum of individual times     ....       3.036 sec  ( 93.0%)

SCF preparation             ....       0.030 sec  (  0.9%)
Fock matrix formation       ....       2.983 sec  ( 91.3%)
  Startup                   ....       0.000 sec  (  0.0% of F)
  Split-RI-J                ....       0.763 sec  ( 25.6% of F)
  XC integration            ....       2.402 sec  ( 80.5% of F)
    XC Preparation          ....       0.000 sec  (  0.0% of XC)
    Basis function eval.    ....       0.831 sec  ( 34.6% of XC)
    Density eval.           ....       0.455 sec  ( 18.9% of XC)
    XC-Functional eval.     ....       0.538 sec  ( 22.4% of XC)
    XC-Potential eval.      ....       0.507 sec  ( 21.1% of XC)
Diagonalization             ....       0.000 sec  (  0.0%)
Density matrix formation    ....       0.003 sec  (  0.1%)
Total Energy calculation    ....       0.000 sec  (  0.0%)
Population analysis         ....       0.001 sec  (  0.0%)
Orbital Transformation      ....       0.002 sec  (  0.1%)
Orbital Orthonormalization  ....       0.000 sec  (  0.0%)
DIIS solution               ....       0.010 sec  (  0.3%)
SOSCF solution              ....       0.007 sec  (  0.2%)
Finished LeanSCF after   3.3 sec

Maximum memory used throughout the entire LEANSCF-calculation: 12.9 MB



-------------------------------------------------------------------------------
                          DFT DISPERSION CORRECTION                            
-------------------------------------------------------------------------------
Active option DFTDOPT                   ...         2   
Final C6-coefficient scaling factor     ...     1.250
Final VDW-radii scaling factor          ...     1.100
Damping factor alpha                    ...    20.000
-------------------------   ----------------
Dispersion correction           -0.014039016
-------------------------   ----------------


-------------------------   --------------------
FINAL SINGLE POINT ENERGY      -323.533254313477
-------------------------   --------------------

------------------------------------------------------------------------------
                         ORCA SCF GRADIENT CALCULATION
------------------------------------------------------------------------------

Nuc. rep. gradient        (SHARK) ... done (  0.0 sec)
HCore & Overlap gradient  (SHARK) ... done (  0.0 sec)
Split-RIJ-J gradient      (SHARK) ... done (  0.2 sec)
XC gradient                       ... done (  1.1 sec)
Dispersion correction             ... done (  0.0 sec)

-------------------
DISPERSION GRADIENT
-------------------

   1   C   :   -0.000074036    0.000371190    0.000345993
   2   O   :    0.000652905    0.000373780   -0.000002205
   3   O   :    0.000007661    0.000286471   -0.000161181
   4   C   :    0.000834750   -0.000953066   -0.000462586
   5   H   :   -0.001787516   -0.000302619    0.000228008
   6   C   :   -0.000163187    0.000413236    0.000326809
   7   H   :   -0.000572043   -0.001166582    0.000157817
   8   N   :    0.001074838    0.000980580   -0.000100976
   9   H   :   -0.001181863    0.000500604   -0.000562688
  10   H   :    0.000581295    0.000156511   -0.000928880
  11   H   :   -0.000028983   -0.000004361    0.000057650
  12   H   :    0.000267432    0.000076317    0.001053674
  13   H   :    0.000388748   -0.000732061    0.000048565

Difference to translation invariance:
           :   -0.0000000000   -0.0000000000    0.0000000000

Difference to rotation invariance:
           :   -0.0000000000    0.0000000000    0.0000000000

Norm of the Dispersion gradient    ...    0.0039127531
RMS gradient                       ...    0.0006265419
MAX gradient                       ...    0.0017875157

------------------
CARTESIAN GRADIENT
------------------

   1   C   :   -0.002575342   -0.009435351    0.007479620
   2   O   :    0.001658884    0.008214049   -0.008642483
   3   O   :   -0.018594614   -0.007196723    0.005447549
   4   C   :   -0.004053864    0.012091777   -0.008177974
   5   H   :    0.004148948   -0.001050643    0.001779363
   6   C   :    0.008383374   -0.001488526    0.009677648
   7   H   :   -0.002480439   -0.002293855    0.000217363
   8   N   :    0.012676513   -0.003854997   -0.000891339
   9   H   :   -0.003123262    0.002582059   -0.000619159
  10   H   :    0.000972314    0.001142931   -0.003254793
  11   H   :    0.002165259   -0.002371672   -0.000507866
  12   H   :    0.000470557   -0.000193206   -0.002042143
  13   H   :    0.000351671    0.003854158   -0.000465787

Difference to translation invariance:
           :   -0.0000000000   -0.0000000000   -0.0000000000

Difference to rotation invariance:
           :    0.0003599683    0.0001136266   -0.0001543637

Norm of the Cartesian gradient     ...    0.0372634496
RMS gradient                       ...    0.0059669274
MAX gradient                       ...    0.0185946145

-------
TIMINGS
-------

Total SCF gradient time     ....        1.374 sec

Densities                   ....       0.000 sec  (  0.0%)
One electron gradient       ....       0.041 sec  (  3.0%)
RI-J Coulomb gradient       ....       0.232 sec  ( 16.9%)
XC gradient                 ....       1.101 sec  ( 80.1%)

Maximum memory used throughout the entire SCFGRAD-calculation: 17.0 MB
------------------------------------------------------------------------------
                         ORCA GEOMETRY RELAXATION STEP
------------------------------------------------------------------------------

Reading the OPT-File                    .... done
Getting information on internals        .... done
Copying old internal coords+grads       .... done
Making the new internal coordinates     .... (2022 redundants) done
Validating the new internal coordinates .... (2022 redundants) done
Calculating the B-matrix                .... done
Calculating the G,G- and P matrices     .... done
Transforming gradient to internals      .... done
Projecting the internal gradient        .... done
Number of atoms                         ....  13
Number of internal coordinates          ....  51
Current Energy                          ....  -323.533254313 Eh
Current gradient norm                   ....     0.037263450 Eh/bohr
Maximum allowed component of the step   ....  0.300
Current trust radius                    ....  0.300
Evaluating the initial hessian          ....  (Almloef) done
Projecting the Hessian                  .... done
Forming the augmented Hessian           .... done
Diagonalizing the augmented Hessian     .... done
Last element of RFO vector              ....  0.953260273
Lowest eigenvalues of augmented Hessian:
 -0.006078673  0.010021937  0.011722239  0.015409107  0.015625548
Length of the computed step             ....  0.316965250
Warning: the length of the step is outside the trust region - taking restricted step instead
The input lambda is                     ....     0.009000
   iter:   5  x=   -0.007254  g=    7.028758 f(x)=     0.026847
   iter:  10  x=   -0.008181  g=    4.541069 f(x)=     0.000000
The output lambda is                    ....    -0.008181 (10 iterations)
The final length of the internal step   ....  0.300000000
Converting the step to Cartesian space:
 Initial RMS(Int)=    0.0420084025
Transforming coordinates:
 Iter   0:  RMS(Cart)=    0.0661379341 RMS(Int)=    0.8777963748
 Iter   5:  RMS(Cart)=    0.0000000052 RMS(Int)=    0.0000000049
done
Storing new coordinates                 .... done

                                .--------------------.
          ----------------------|Geometry convergence|-------------------------
          Item                value                   Tolerance       Converged
          ---------------------------------------------------------------------
          RMS gradient        0.0048416239            0.0001000000      NO
          MAX gradient        0.0223668413            0.0003000000      NO
          RMS step            0.0420084025            0.0020000000      NO
          MAX step            0.2596385018            0.0040000000      NO
          -------------------------------------------------------------------------
          ........................................................
          Max(Bonds)      0.1374      Max(Angles)    3.71
          Max(Dihed)        2.98      Max(Improp)    0.00
          ---------------------------------------------------------------------

    ---------------------------------------------------------------------------
                         Redundant Internal Coordinates
                            (Angstroem and degrees)

        Definition                    Value    dE/dq     Step     New-Value
    ----------------------------------------------------------------------------
     1. B(O   1,C   0)                1.2224  0.012040 -0.0061    1.2163   
     2. B(O   2,C   0)                1.3549  0.001456  0.0009    1.3558   
     3. B(C   3,C   0)                1.5381 -0.010370  0.0203    1.5583   
     4. B(H   4,O   2)                0.9743 -0.003967  0.0021    0.9764   
     5. B(C   5,C   3)                1.5229 -0.006423  0.0087    1.5316   
     6. B(H   6,C   5)                1.0956 -0.001457  0.0021    1.0978   
     7. B(N   7,C   3)                1.4742 -0.000477  0.0012    1.4754   
     8. B(N   7,H   4)                2.0322 -0.008747  0.1374    2.1696   
     9. B(H   8,C   5)                1.0962 -0.003412  0.0050    1.1012   
    10. B(H   9,C   5)                1.0954 -0.002013  0.0029    1.0984   
    11. B(H  10,C   3)                1.0953 -0.003173  0.0046    1.1000   
    12. B(H  11,N   7)                1.0160  0.000916 -0.0011    1.0149   
    13. B(H  12,N   7)                1.0158  0.001120 -0.0014    1.0144   
    14. A(O   1,C   0,C   3)          124.23  0.001868   -0.94    123.29   
    15. A(O   2,C   0,C   3)          113.81 -0.003730    1.80    115.60   
    16. A(O   1,C   0,O   2)          121.96  0.001864   -0.86    121.11   
    17. A(C   0,O   2,H   4)          109.88  0.022367   -2.44    107.44   
    18. A(C   0,C   3,H  10)          107.11  0.001764   -1.08    106.04   
    19. A(C   0,C   3,N   7)          112.93 -0.008633    3.71    116.64   
    20. A(C   0,C   3,C   5)          109.69  0.004319   -0.81    108.89   
    21. A(C   5,C   3,N   7)          109.19  0.000393    0.08    109.27   
    22. A(N   7,C   3,H  10)          107.79  0.002244   -0.95    106.84   
    23. A(C   5,C   3,H  10)          110.07 -0.000020   -1.06    109.01   
    24. A(H   8,C   5,H   9)          108.24 -0.001052    0.22    108.46   
    25. A(H   6,C   5,H   9)          107.69 -0.004480    0.88    108.57   
    26. A(C   3,C   5,H   6)          110.86  0.001816   -0.36    110.50   
    27. A(C   3,C   5,H   9)          111.13  0.002473   -0.41    110.72   
    28. A(H   6,C   5,H   8)          107.28 -0.002114    0.29    107.57   
    29. A(C   3,C   5,H   8)          111.48  0.002898   -0.54    110.93   
    30. A(H  11,N   7,H  12)          114.78  0.003419   -0.31    114.48   
    31. A(C   3,N   7,H  12)          114.15 -0.004766    1.01    115.15   
    32. A(C   3,N   7,H  11)          114.34 -0.001189    0.41    114.74   
    33. D(H   4,O   2,C   0,O   1)   -179.22 -0.000363    0.49   -178.73   
    34. D(H   4,O   2,C   0,C   3)      0.69  0.000528   -0.59      0.10   
    35. D(N   7,C   3,C   0,O   1)    179.92 -0.000600    1.19    181.11   
    36. D(N   7,C   3,C   0,O   2)      0.01 -0.001514    2.30      2.32   
    37. D(C   5,C   3,C   0,O   2)   -122.03  0.000791    0.24   -121.79   
    38. D(H  10,C   3,C   0,O   1)    -61.57 -0.001702    1.48    -60.09   
    39. D(C   5,C   3,C   0,O   1)     57.87  0.001704   -0.87     57.00   
    40. D(H   8,C   5,C   3,H  10)    179.50  0.000587    0.32    179.82   
    41. D(H   8,C   5,C   3,N   7)    -62.37  0.003542   -1.41    -63.78   
    42. D(H   8,C   5,C   3,C   0)     61.89 -0.004141    2.75     64.64   
    43. D(H   6,C   5,C   3,H  10)     60.06  0.000130    0.55     60.61   
    44. D(H   6,C   5,C   3,N   7)    178.19  0.003085   -1.18    177.02   
    45. D(H   6,C   5,C   3,C   0)    -57.55 -0.004598    2.98    -54.57   
    46. D(H  11,N   7,C   3,C   5)     53.54  0.000101    0.52     54.06   
    47. D(H  11,N   7,C   3,C   0)    -68.79  0.000154   -1.02    -69.81   
    48. D(H  12,N   7,C   3,H  10)    -51.92  0.000410   -0.20    -52.12   
    49. D(H  12,N   7,C   3,C   5)   -171.47 -0.001095    1.58   -169.89   
    50. D(H  12,N   7,C   3,C   0)     66.20 -0.001042    0.04     66.24   
    51. D(H  11,N   7,C   3,H  10)    173.09  0.001606   -1.26    171.83   
    ----------------------------------------------------------------------------

Geometry step timings:
Preparation and reading OPT file:      0.000 s ( 1.531 %)
Internal coordinates            :      0.000 s ( 1.276 %)
B/P matrices and projection     :      0.000 s (29.592 %)
Hessian update/contruction      :      0.000 s (12.500 %)
Making the step                 :      0.000 s (35.459 %)
Converting the step to Cartesian:      0.000 s ( 3.827 %)
Storing new data                :      0.000 s ( 1.658 %)
Checking convergence            :      0.000 s ( 1.276 %)
Final printing                  :      0.000 s (12.883 %)
Total time                      :      0.001 s

Time for energy+gradient        :      5.090 s
Time for complete geometry iter :      5.102 s

         *************************************************************
         *                GEOMETRY OPTIMIZATION CYCLE   2            *
         *************************************************************
---------------------------------
CARTESIAN COORDINATES (ANGSTROEM)
---------------------------------
  C     -4.544000    0.485212   -2.517252
  O     -4.426049    1.331712   -3.382676
  O     -3.460532   -0.011666   -1.871241
  C     -5.916291   -0.120081   -2.094340
  H     -3.779399   -0.684802   -1.239957
  C     -6.589356   -0.729153   -3.327946
  H     -6.665778    0.015276   -4.131131
  N     -5.892332   -1.120112   -1.009791
  H     -6.005042   -1.577980   -3.716080
  H     -7.599341   -1.085036   -3.083612
  H     -6.523140    0.724426   -1.735861
  H     -5.471392   -2.008817   -1.260805
  H     -5.613068   -0.764550   -0.101729

----------------------------
CARTESIAN COORDINATES (A.U.)
----------------------------
  NO LB      ZA    FRAG     MASS         X           Y           Z
   0 C     6.0000    1    12.011   -8.586916    0.916919   -4.756918
   1 O     8.0000    1    15.999   -8.364020    2.516570   -6.392332
   2 O     8.0000    1    15.999   -6.539459   -0.022045   -3.536133
   3 C     6.0000    1    12.011  -11.180170   -0.226919   -3.957730
   4 H     1.0000    1     1.008   -7.142030   -1.294087   -2.343179
   5 C     6.0000    1    12.011  -12.452078   -1.377900   -6.288907
   6 H     1.0000    1     1.008  -12.596494    0.028868   -7.806706
   7 N     7.0000    1    14.007  -11.134894   -2.116705   -1.908228
   8 H     1.0000    1     1.008  -11.347884   -2.981951   -7.022374
   9 H     1.0000    1     1.008  -14.360673   -2.050421   -5.827182
  10 H     1.0000    1     1.008  -12.326949    1.368966   -3.280303
  11 H     1.0000    1     1.008  -10.339433   -3.796114   -2.382577
  12 H     1.0000    1     1.008  -10.607160   -1.444791   -0.192240

----------------------------------------------
CARTESIAN COORDINATES OF FRAGMENTS (ANGSTROEM)
----------------------------------------------

 FRAGMENT 1 
  C    -4.544000    0.485212   -2.517252
  O    -4.426049    1.331712   -3.382676
  O    -3.460532   -0.011666   -1.871241
  C    -5.916291   -0.120081   -2.094340
  H    -3.779399   -0.684802   -1.239957
  C    -6.589356   -0.729153   -3.327946
  H    -6.665778    0.015276   -4.131131
  N    -5.892332   -1.120112   -1.009791
  H    -6.005042   -1.577980   -3.716080
  H    -7.599341   -1.085036   -3.083612
  H    -6.523140    0.724426   -1.735861
  H    -5.471392   -2.008817   -1.260805
  H    -5.613068   -0.764550   -0.101729

--------------------------------
INTERNAL COORDINATES (ANGSTROEM)
--------------------------------
 C      0   0   0     0.000000000000     0.00000000     0.00000000
 O      1   0   0     1.216319142906     0.00000000     0.00000000
 O      1   2   0     1.355773177278   121.10377380     0.00000000
 C      1   2   3     1.558337765354   123.28568878   181.26739212
 H      3   1   2     0.976375114179   107.44300181   181.27323723
 C      4   1   2     1.531590722696   108.83647531    57.00060303
 H      6   4   1     1.097780086675   110.50060998   305.41521348
 N      4   1   2     1.475427030499   116.64483486   181.11575226
 H      6   4   1     1.101171527011   110.93150302    64.62176429
 H      6   4   1     1.098371854863   110.71804347   185.08928284
 H      4   1   2     1.099983357079   106.02512527   299.89386726
 H      8   4   1     1.014886698346   114.73664830   290.16906589
 H      8   4   1     1.014391149555   115.14538153    66.22375382

---------------------------
INTERNAL COORDINATES (A.U.)
---------------------------
 C      0   0   0     0.000000000000     0.00000000     0.00000000
 O      1   0   0     2.298510071539     0.00000000     0.00000000
 O      1   2   0     2.562040004772   121.10377380     0.00000000
 C      1   2   3     2.944831600665   123.28568878   181.26739212
 H      3   1   2     1.845081569775   107.44300181   181.27323723
 C      4   1   2     2.894287015150   108.83647531    57.00060303
 H      6   4   1     2.074503719088   110.50060998   305.41521348
 N      4   1   2     2.788153018228   116.64483486   181.11575226
 H      6   4   1     2.080912612523   110.93150302    64.62176429
 H      6   4   1     2.075621998899   110.71804347   185.08928284
 H      4   1   2     2.078667296751   106.02512527   299.89386726
 H      8   4   1     1.917857916833   114.73664830   290.16906589
 H      8   4   1     1.916921465332   115.14538153    66.22375382

------------------------------------------------------------------------------
                   ___                                                        
                  /   \      - P O W E R E D   B Y -                         
                 /     \                                                     
                 |  |  |   _    _      __       _____    __    __             
                 |  |  |  | |  | |    /  \     |  _  \  |  |  /  |          
                  \  \/   | |  | |   /    \    | | | |  |  | /  /          
                 / \  \   | |__| |  /  /\  \   | |_| |  |  |/  /          
                |  |  |   |  __  | /  /__\  \  |    /   |      \           
                |  |  |   | |  | | |   __   |  |    \   |  |\   \          
                \     /   | |  | | |  |  |  |  | |\  \  |  | \   \       
                 \___/    |_|  |_| |__|  |__|  |_| \__\ |__|  \__/        
                                                                              
                      - O R C A' S   B I G   F R I E N D -                    
                                      &                                       
                       - I N T E G R A L  F E E D E R -                       
                                                                              
 v1 FN, 2020, v2 2021, v3 2022-2024                                           
------------------------------------------------------------------------------


----------------------
SHARK INTEGRAL PACKAGE
----------------------

Number of atoms                             ...     13
Number of basis functions                   ...    119
Number of shells                            ...     57
Maximum angular momentum                    ...      2
Integral batch strategy                     ... SHARK/LIBINT Hybrid
RI-J (if used) integral strategy            ... SPLIT-RIJ (Revised 2003 algorithm where possible)
Printlevel                                  ...      1
Contraction scheme used                     ... SEGMENTED contraction
Prescreening option                         ... SCHWARTZ
   Thresh                                   ... 2.500e-11
   Tcut                                     ... 2.500e-12
   Tpresel                                  ... 2.500e-12 
Coulomb Range Separation                    ... NOT USED
Exchange Range Separation                   ... NOT USED
Multipole approximations                    ... NOT USED
Finite Nucleus Model                        ... NOT USED
CABS basis                                  ... NOT available
Auxiliary Coulomb fitting basis             ... AVAILABLE
   # of basis functions in Aux-J            ...    371
   # of shells in Aux-J                     ...    125
   Maximum angular momentum in Aux-J        ...      4
Auxiliary J/K fitting basis                 ... NOT available
Auxiliary Correlation fitting basis         ... NOT available
Auxiliary 'external' fitting basis          ... NOT available

Checking pre-screening integrals            ... done (  0.0 sec) Dimension = 57
   => SHARK Basis and OBASIS are compatible. Storing Pre-screening
Shell pair information
Shell pair cut-off parameter TPreSel        ...   2.5e-12
Total number of shell pairs                 ...      1653
Shell pairs after pre-screening             ...      1600
Total number of primitive shell pairs       ...      8022
Primitive shell pairs kept                  ...      5586
          la=0 lb=0:    508 shell pairs
          la=1 lb=0:    586 shell pairs
          la=1 lb=1:    183 shell pairs
          la=2 lb=0:    189 shell pairs
          la=2 lb=1:    113 shell pairs
          la=2 lb=2:     21 shell pairs

Checking whether 4 symmetric matrices of dimension 119 fit in memory
:Max Core in MB      =   4096.00
 MB in use           =      5.65
 MB left             =   4090.35
 MB needed           =      0.22
 Data fit in memory  = YES
Calculating RI/J V-Matrix + Cholesky decomp.... done (  0.0 sec)
Calculating Nuclear repulsion               ... done (  0.0 sec) ENN=    247.518426066411 Eh

Diagonalization of the overlap matrix:
Smallest eigenvalue                        ... 3.830e-03
Time for diagonalization                   ...    0.001 sec
Threshold for overlap eigenvalues          ... 1.000e-07
Number of eigenvalues below threshold      ... 0
Time for construction of square roots      ...    0.000 sec
Total time needed                          ...    0.001 sec

-------------------
DFT GRID GENERATION
-------------------

General Integration Accuracy     IntAcc      ... 4.388
Radial Grid Type                 RadialGrid  ... OptM3 with GC (2021)
Angular Grid (max. ang.)         AngularGrid ... 4 (Lebedev-302)
Angular grid pruning method      GridPruning ... 4 (adaptive)
Weight generation scheme         WeightScheme... mBecke (2022)
Basis function cutoff            BFCut       ... 1.0000e-11
Integration weight cutoff        WCut        ... 1.0000e-14
Partially contracted basis set               ... off
Rotationally invariant grid construction     ... off
Angular grids for H and He will be reduced by one unit

Total number of grid points                  ...    58941
Total number of batches                      ...      928
Average number of points per batch           ...       63
Average number of grid points per atom       ...     4534
Grids setup in   0.2 sec
Initializing property integral containers    ... done (  0.0 sec)

SHARK setup successfully completed in   0.2 seconds

Maximum memory used throughout the entire STARTUP-calculation: 24.9 MB
Occupation numbers will be reassigned to an Aufbau configuration
             **** ENERGY FILE WAS UPDATED (a.en.tmp) ****
Finished Guess after   0.0 sec
Maximum memory used throughout the entire GUESS-calculation: 9.2 MB
----------------------------------------D-I-I-S--------------------------------------------
Iteration    Energy (Eh)           Delta-E    RMSDP     MaxDP     DIISErr   Damp  Time(sec)
-------------------------------------------------------------------------------------------
               ***  Starting incremental Fock matrix formation  ***
    1    -323.5185693936717257     0.00e+00  3.28e-04  5.05e-03  2.49e-02  0.700   0.2
    2    -323.5195847138996328    -1.02e-03  3.15e-04  4.58e-03  1.90e-02  0.700   0.2
                               ***Turning on AO-DIIS***
    3    -323.5203433151163495    -7.59e-04  2.43e-04  3.29e-03  1.36e-02  0.700   0.2
    4    -323.5208740478050800    -5.31e-04  5.96e-04  8.03e-03  9.62e-03  0.000   0.2
                              *** Initializing SOSCF ***
---------------------------------------S-O-S-C-F--------------------------------------
Iteration    Energy (Eh)           Delta-E    RMSDP     MaxDP     MaxGrad    Time(sec)
--------------------------------------------------------------------------------------
    5    -323.5221156244452345    -1.24e-03  3.77e-05  8.72e-04  7.52e-04     0.2
               *** Restarting incremental Fock matrix formation ***
    6    -323.5221153385662660     2.86e-07  7.48e-05  1.97e-03  4.91e-04     0.2
    7    -323.5221037053789246     1.16e-05  5.83e-05  1.46e-03  1.63e-03     0.2
    8    -323.5221169559568466    -1.33e-05  1.12e-05  2.21e-04  4.19e-05     0.2
    9    -323.5221168709874178     8.50e-08  6.59e-06  1.34e-04  6.40e-05     0.2
   10    -323.5221170181467301    -1.47e-07  1.33e-06  2.86e-05  5.03e-06     0.2
   11    -323.5221170148421947     3.30e-09  8.22e-07  1.79e-05  7.49e-06     0.2
                 **** Energy Check signals convergence ****

[...]
 Integral Threshold     Thresh          ....  2.500e-11 Eh
 Primitive CutOff       TCut            ....  2.500e-12 Eh

Convergence Tolerance:
 Convergence Check Mode ConvCheckMode   .... Total+1el-Energy
 Convergence forced     ConvForced      .... -1
 Energy Change          TolE            ....  1.000e-08 Eh
 1-El. energy change                    ....  1.000e-05 Eh
 Orbital Gradient       TolG            ....  1.000e-05
 Orbital Rotation angle TolX            ....  1.000e-05
 DIIS Error             TolErr          ....  5.000e-07

---------------------
INITIAL GUESS: MOREAD
---------------------
Guess MOs are being read from file: a.gbw
Input Geometry matches current geometry (good)
Input basis set matches current basis set (good)
Occupation numbers will be reassigned to an Aufbau configuration
MOs were renormalized
MOs were reorthogonalized (Cholesky)
                      ------------------
                      INITIAL GUESS DONE (   0.0 sec)
                      ------------------
             **** ENERGY FILE WAS UPDATED (a.en.tmp) ****
Finished Guess after   0.0 sec
Maximum memory used throughout the entire GUESS-calculation: 9.2 MB

-------------------------------------------------------------------------------------------
                                      ORCA LEAN-SCF
                              memory conserving SCF solver
-------------------------------------------------------------------------------------------

----------------------------------------D-I-I-S--------------------------------------------
Iteration    Energy (Eh)           Delta-E    RMSDP     MaxDP     DIISErr   Damp  Time(sec)
-------------------------------------------------------------------------------------------
               ***  Starting incremental Fock matrix formation  ***
                              *** Initializing SOSCF ***
---------------------------------------S-O-S-C-F--------------------------------------
Iteration    Energy (Eh)           Delta-E    RMSDP     MaxDP     MaxGrad    Time(sec)
--------------------------------------------------------------------------------------
    1    -323.5225477786022452     0.00e+00  2.91e-05  6.89e-04  1.15e-04     0.2
               *** Restarting incremental Fock matrix formation ***
    2    -323.5225504974663977    -2.72e-06  1.37e-05  2.43e-04  1.05e-04     0.2
    3    -323.5225507086642551    -2.11e-07  3.37e-06  6.27e-05  1.88e-05     0.2
    4    -323.5225506986415098     1.00e-08  2.25e-06  4.48e-05  3.66e-05     0.2
    5    -323.5225507156115441    -1.70e-08  8.74e-07  1.72e-05  4.07e-06     0.2
    6    -323.5225507160478742    -4.36e-10  6.11e-07  1.28e-05  1.20e-05     0.2
                 **** Energy Check signals convergence ****

               *****************************************************
               *                     SUCCESS                       *
               *           SCF CONVERGED AFTER   6 CYCLES          *
               *****************************************************

             **** ENERGY FILE WAS UPDATED (a.en.tmp) ****

----------------
TOTAL SCF ENERGY
----------------

Total Energy       :       -323.52255071525093 Eh           -8803.49617 eV

Components:
Nuclear Repulsion  :        247.28911864281002 Eh            6729.07902 eV
Electronic Energy  :       -570.81166935806095 Eh          -15532.57518 eV
One Electron Energy:       -930.76124148003544 Eh          -25327.30100 eV
Two Electron Energy:        359.94957212197448 Eh            9794.72581 eV

Virial components:
Potential Energy   :       -645.12102909982832 Eh          -17554.63566 eV
Kinetic Energy     :        321.59847838457733 Eh            8751.13950 eV
Virial Ratio       :          2.00598284028065

DFT components:
N(Alpha)           :       24.000042293513 electrons
N(Beta)            :       24.000042293513 electrons
N(Total)           :       48.000084587025 electrons
E(X)               :      -40.696125303645 Eh       
E(C)               :       -2.115159711519 Eh       
E(XC)              :      -42.811285015164 Eh       

---------------
SCF CONVERGENCE
---------------

  Last Energy change         ...    4.3633e-10  Tolerance :   1.0000e-08
  Last MAX-Density change    ...    1.2790e-05  Tolerance :   1.0000e-07
  Last RMS-Density change    ...    6.1119e-07  Tolerance :   5.0000e-09
  Last DIIS Error            ...    9.6181e-04  Tolerance :   5.0000e-07
  Last Orbital Gradient      ...    1.1967e-05  Tolerance :   1.0000e-05
  Last Orbital Rotation      ...    1.5000e-05  Tolerance :   1.0000e-05


----------------
ORBITAL ENERGIES
----------------

  NO   OCC          E(Eh)            E(eV) 
   0   2.0000     -18.811638      -511.8907 
   1   2.0000     -18.747666      -510.1499 
   2   2.0000     -14.020894      -381.5279 
   3   2.0000     -10.028263      -272.8829 
   4   2.0000      -9.965860      -271.1848 
   5   2.0000      -9.916379      -269.8384 
   6   2.0000      -1.003755       -27.3136 
   7   2.0000      -0.925920       -25.1956 
   8   2.0000      -0.832840       -22.6627 
   9   2.0000      -0.687127       -18.6977 
  10   2.0000      -0.588608       -16.0169 
  11   2.0000      -0.541967       -14.7477 
  12   2.0000      -0.480057       -13.0630 
  13   2.0000      -0.470560       -12.8046 
  14   2.0000      -0.414117       -11.2687 
  15   2.0000      -0.390197       -10.6178 
  16   2.0000      -0.374976       -10.2036 
  17   2.0000      -0.359101        -9.7716 
  18   2.0000      -0.340917        -9.2768 
  19   2.0000      -0.324447        -8.8286 
  20   2.0000      -0.312268        -8.4972 
  21   2.0000      -0.264665        -7.2019 
  22   2.0000      -0.250629        -6.8200 
  23   2.0000      -0.198494        -5.4013 
  24   0.0000      -0.020991        -0.5712 
  25   0.0000       0.018855         0.5131 
  26   0.0000       0.087251         2.3742 
  27   0.0000       0.097676         2.6579 
  28   0.0000       0.104199         2.8354 
  29   0.0000       0.125715         3.4209 
  30   0.0000       0.140255         3.8165 
  31   0.0000       0.150606         4.0982 
  32   0.0000       0.168558         4.5867 
  33   0.0000       0.178938         4.8692 
  34   0.0000       0.206337         5.6147 
*Only the first 10 virtual orbitals were printed.

                    ********************************
                    * MULLIKEN POPULATION ANALYSIS *
                    ********************************

-------------------------
MULLIKEN FRAGMENT CHARGES
-------------------------
 Fragment   0 :  -0.000000
Sum of fragment charges:   -0.0000000

---------------------------------
MULLIKEN FRAGMENT OVERLAP CHARGES
---------------------------------
                  0    
      0      55.001816

-----------------------
MULLIKEN ATOMIC CHARGES
-----------------------
   0 C :    0.521447
   1 O :   -0.408277
   2 O :   -0.453406
   3 C :   -0.065053
   4 H :    0.283581
   5 C :   -0.325510
   6 H :    0.147896
   7 N :   -0.582398
   8 H :    0.107076
   9 H :    0.130314
  10 H :    0.149272
  11 H :    0.244585
  12 H :    0.250473
Sum of atomic charges:   -0.0000000

--------------------------------
MULLIKEN REDUCED ORBITAL CHARGES
--------------------------------
  0 C s       :     3.019319  s :     3.019319
      pz      :     0.773631  p :     2.341097
      px      :     0.787399
      py      :     0.780068
      dz2     :     0.019835  d :     0.118137
      dxz     :     0.027123
      dyz     :     0.015978
      dx2y2   :     0.021667
      dxy     :     0.033534

  1 O s       :     3.874802  s :     3.874802
      pz      :     1.375646  p :     4.505783
      px      :     1.763539
      py      :     1.366597
      dz2     :     0.007730  d :     0.027691
      dxz     :     0.003139
      dyz     :     0.007286
      dx2y2   :     0.005247
      dxy     :     0.004290

  2 O s       :     3.846622  s :     3.846622
      pz      :     1.550284  p :     4.582942
      px      :     1.543513
      py      :     1.489146
      dz2     :     0.002320  d :     0.023842
      dxz     :     0.006241
      dyz     :     0.003247
      dx2y2   :     0.005675
      dxy     :     0.006360

  3 C s       :     3.216356  s :     3.216356
      pz      :     0.879816  p :     2.793292
      px      :     0.967887
      py      :     0.945589
      dz2     :     0.010420  d :     0.055405
      dxz     :     0.010452
      dyz     :     0.014327
      dx2y2   :     0.007274
      dxy     :     0.012932

  4 H s       :     0.677859  s :     0.677859
      pz      :     0.013775  p :     0.038560
      px      :     0.009446
      py      :     0.015339

  5 C s       :     3.266900  s :     3.266900
      pz      :     0.970159  p :     3.030143
      px      :     1.029003
      py      :     1.030981
      dz2     :     0.005092  d :     0.028466
      dxz     :     0.004026
      dyz     :     0.008312
      dx2y2   :     0.004964
      dxy     :     0.006073

  6 H s       :     0.840704  s :     0.840704
      pz      :     0.004612  p :     0.011400
      px      :     0.002424
      py      :     0.004363

  7 N s       :     3.588233  s :     3.588233
      pz      :     1.132591  p :     3.967543
      px      :     1.694547
      py      :     1.140406
      dz2     :     0.005581  d :     0.026622
      dxz     :     0.005978
      dyz     :     0.005639
      dx2y2   :     0.002770
      dxy     :     0.006654

  8 H s       :     0.881594  s :     0.881594
      pz      :     0.002950  p :     0.011331
      px      :     0.003459
      py      :     0.004921

  9 H s       :     0.858422  s :     0.858422
      pz      :     0.002503  p :     0.011264
      px      :     0.005917
      py      :     0.002844

 10 H s       :     0.839849  s :     0.839849
      pz      :     0.002224  p :     0.010879
      px      :     0.003863
      py      :     0.004793

 11 H s       :     0.731109  s :     0.731109
      pz      :     0.004661  p :     0.024306
      px      :     0.008971
      py      :     0.010674

 12 H s       :     0.725332  s :     0.725332
      pz      :     0.010303  p :     0.024195
      px      :     0.008760
      py      :     0.005132



                     *******************************
                     * LOEWDIN POPULATION ANALYSIS *
                     *******************************

------------------------
LOEWDIN FRAGMENT CHARGES
------------------------
 Fragment   0 :  -0.000000

----------------------------
LOEWDIN FRAGMENT BOND ORDERS
----------------------------
                  0    
      0      77.526463

----------------------
LOEWDIN ATOMIC CHARGES
----------------------
   0 C :    0.120088
   1 O :   -0.207305
   2 O :   -0.154863
   3 C :   -0.060103
   4 H :    0.158498
   5 C :   -0.189711
   6 H :    0.090530
   7 N :   -0.253272
   8 H :    0.070215
   9 H :    0.080924
  10 H :    0.092990
  11 H :    0.124958
  12 H :    0.127053

-------------------------------
LOEWDIN REDUCED ORBITAL CHARGES
-------------------------------
  0 C s       :     2.881565  s :     2.881565
      pz      :     0.871409  p :     2.718420
      px      :     0.939877
      py      :     0.907133
      dz2     :     0.043249  d :     0.279927
      dxz     :     0.065311
      dyz     :     0.041054
      dx2y2   :     0.049290
      dxy     :     0.081023

  1 O s       :     3.564118  s :     3.564118
      pz      :     1.418809  p :     4.587116
      px      :     1.743006
      py      :     1.425301
      dz2     :     0.011062  d :     0.056071
      dxz     :     0.005862
      dyz     :     0.020412
      dx2y2   :     0.010733
      dxy     :     0.008002

  2 O s       :     3.497691  s :     3.497691
      pz      :     1.540038  p :     4.607035
      px      :     1.578669
      py      :     1.488327
      dz2     :     0.004857  d :     0.050137
      dxz     :     0.011635
      dyz     :     0.009480
      dx2y2   :     0.012251
      dxy     :     0.011914

  3 C s       :     2.897632  s :     2.897632
      pz      :     0.981565  p :     3.037697
      px      :     1.044367
      py      :     1.011765
      dz2     :     0.022240  d :     0.124775
      dxz     :     0.023570
      dyz     :     0.033905
      dx2y2   :     0.015897
      dxy     :     0.029163

  4 H s       :     0.721522  s :     0.721522
      pz      :     0.042364  p :     0.119980
      px      :     0.028594
      py      :     0.049022

  5 C s       :     2.929672  s :     2.929672
      pz      :     1.041452  p :     3.199477
      px      :     1.077794
      py      :     1.080231
      dz2     :     0.011064  d :     0.060561
      dxz     :     0.009502
      dyz     :     0.017703
      dx2y2   :     0.009927
      dxy     :     0.012366

  6 H s       :     0.869584  s :     0.869584
      pz      :     0.017556  p :     0.039885
      px      :     0.006714
      py      :     0.015616

  7 N s       :     3.189819  s :     3.189819
      pz      :     1.169743  p :     4.008213
      px      :     1.663680
      py      :     1.174790
      dz2     :     0.013458  d :     0.055240
      dxz     :     0.009622
      dyz     :     0.016071
      dx2y2   :     0.005487
      dxy     :     0.010602

  8 H s       :     0.891621  s :     0.891621
      pz      :     0.008626  p :     0.038164
      px      :     0.011579
      py      :     0.017959

  9 H s       :     0.879970  s :     0.879970
      pz      :     0.007382  p :     0.039106
      px      :     0.023170
      py      :     0.008554

 10 H s       :     0.868324  s :     0.868324
      pz      :     0.007065  p :     0.038686
      px      :     0.013798
      py      :     0.017823

 11 H s       :     0.794756  s :     0.794756
      pz      :     0.013088  p :     0.080287
      px      :     0.028994
      py      :     0.038204

 12 H s       :     0.792727  s :     0.792727
      pz      :     0.036798  p :     0.080221
      px      :     0.028302
      py      :     0.015120



                      *****************************
                      * MAYER POPULATION ANALYSIS *
                      *****************************

  NA   - Mulliken gross atomic population
  ZA   - Total nuclear charge
  QA   - Mulliken gross atomic charge
  VA   - Mayer's total valence
  BVA  - Mayer's bonded valence
  FA   - Mayer's free valence

  ATOM       NA         ZA         QA         VA         BVA        FA
  0 C      5.4786     6.0000     0.5214     3.9084     3.9084    -0.0000
  1 O      8.4083     8.0000    -0.4083     2.1089     2.1089    -0.0000
  2 O      8.4534     8.0000    -0.4534     2.0397     2.0397     0.0000
  3 C      6.0651     6.0000    -0.0651     3.8366     3.8366    -0.0000
  4 H      0.7164     1.0000     0.2836     0.9565     0.9565    -0.0000
  5 C      6.3255     6.0000    -0.3255     3.8654     3.8654    -0.0000
  6 H      0.8521     1.0000     0.1479     0.9579     0.9579     0.0000
  7 N      7.5824     7.0000    -0.5824     2.9022     2.9022    -0.0000
  8 H      0.8929     1.0000     0.1071     0.9571     0.9571     0.0000
  9 H      0.8697     1.0000     0.1303     0.9540     0.9540     0.0000
 10 H      0.8507     1.0000     0.1493     0.9429     0.9429    -0.0000
 11 H      0.7554     1.0000     0.2446     0.9256     0.9256     0.0000
 12 H      0.7495     1.0000     0.2505     0.9207     0.9207    -0.0000

  Mayer bond orders larger than 0.100000
B(  0-C ,  1-O ) :   1.9090 B(  0-C ,  2-O ) :   1.0687 B(  0-C ,  3-C ) :   0.8942 
B(  2-O ,  4-H ) :   0.8278 B(  3-C ,  5-C ) :   0.9944 B(  3-C ,  7-N ) :   0.9775 
B(  3-C , 10-H ) :   0.9247 B(  5-C ,  6-H ) :   0.9479 B(  5-C ,  8-H ) :   0.9571 
B(  5-C ,  9-H ) :   0.9530 B(  7-N , 11-H ) :   0.8989 B(  7-N , 12-H ) :   0.9017 


-------
TIMINGS
-------

Total SCF time: 0 days 0 hours 0 min 1 sec 

Total time                  ....       1.485 sec
Sum of individual times     ....       1.265 sec  ( 85.2%)

SCF preparation             ....       0.026 sec  (  1.8%)
Fock matrix formation       ....       1.222 sec  ( 82.3%)
  Startup                   ....       0.000 sec  (  0.0% of F)
  Split-RI-J                ....       0.345 sec  ( 28.2% of F)
  XC integration            ....       1.056 sec  ( 86.4% of F)
    Basis function eval.    ....       0.382 sec  ( 36.1% of XC)
    Density eval.           ....       0.206 sec  ( 19.5% of XC)
    XC-Functional eval.     ....       0.246 sec  ( 23.3% of XC)
    XC-Potential eval.      ....       0.191 sec  ( 18.1% of XC)
Diagonalization             ....       0.000 sec  (  0.0%)
Density matrix formation    ....       0.001 sec  (  0.1%)
Total Energy calculation    ....       0.000 sec  (  0.0%)
Population analysis         ....       0.009 sec  (  0.6%)
Orbital Transformation      ....       0.001 sec  (  0.1%)
Orbital Orthonormalization  ....       0.000 sec  (  0.0%)
DIIS solution               ....       0.001 sec  (  0.1%)
SOSCF solution              ....       0.005 sec  (  0.3%)
Finished LeanSCF after   1.5 sec

Maximum memory used throughout the entire LEANSCF-calculation: 13.4 MB



-------------------------------------------------------------------------------
                          DFT DISPERSION CORRECTION                            
-------------------------------------------------------------------------------
Active option DFTDOPT                   ...         2   
Final C6-coefficient scaling factor     ...     1.250
Final VDW-radii scaling factor          ...     1.100
Damping factor alpha                    ...    20.000
-------------------------   ----------------
Dispersion correction           -0.014483974
-------------------------   ----------------


-------------------------   --------------------
FINAL SINGLE POINT ENERGY      -323.537034688805
-------------------------   --------------------

                                *** OPTIMIZATION RUN DONE ***

		     ------------------------------
			                   _   
			                  | |  
			  __ _  ___   __ _| |_ 
			 / _` |/ _ \ / _` | __|
			| (_| | (_) | (_| | |_ 
			 \__, |\___/ \__,_|\__|
			 __/ |                
			|___/                 

		      A Global Optimizer Algorithm
		     ------------------------------

Global parameters
-----------------
  GOAT version                               ... default
  Minimum global steps                       ... 3
  Number of base workers                     ... 4
  Split workers by                           ... 2
  Final number of workers                    ... 8
  Number of available CPUs                   ... 1
  Parameter list (worker : temperature)      ...  0 : 2903.97,  1 : 1451.98, 
                                                  2 :  725.99,  3 :  363.00, 
                                                  4 : 2903.97,  5 : 1451.98, 
                                                  6 :  725.99,  7 :  363.00 
  GradComp (mean : sigma)                    ... 1.00 : 0.50
  Number of fragments                        ... 1
  Number of atoms                            ... 13
  Flexibility parameter                      ... 1.00
  Optimizations per global step              ... 184
  Optimizations per worker                   ... 23

Filtering criteria
------------------
  RMSD                                       ... 0.125 Angs (atom. pos.)
  EnDiff                                     ... 0.100 kcal/mol
  RotConst                                   ... 1.00-2.50 %
  Maximum Conf. Energy                       ... 6.000 kcal/mol

Thermodynamics
--------------
  Ensemble temperature                       ... 298.15 K
  Degeneracy of conformers                   ... 1
  *No rotamers will be included in Gconf

------------------------------------------------------------------------------
   Iter  MinTemp     MaxEn       GradComp    NOpt   NProcs    Output
------------------------------------------------------------------------------
   0     2903.97     39.00    1.00 : 0.50      23        1    a.goat.0.0.out
