
                                 *****************
                                 * O   R   C   A *
                                 *****************

                                            #,                                       
                                            ###                                      
                                            ####                                     
                                            #####                                    
                                            ######                                   
                                           ########,                                 
                                     ,,################,,,,,                         
                               ,,#################################,,                 
                          ,,##########################################,,             
                       ,#########################################, ''#####,          
                    ,#############################################,,   '####,        
                  ,##################################################,,,,####,       
                ,###########''''           ''''###############################       
              ,#####''   ,,,,##########,,,,          '''####'''          '####       
            ,##' ,,,,###########################,,,                        '##       
           ' ,,###''''                  '''############,,,                           
         ,,##''                                '''############,,,,        ,,,,,,###''
      ,#''                                            '''#######################'''  
     '                                                          ''''####''''         
             ,#######,   #######,   ,#######,      ##                                
            ,#'     '#,  ##    ##  ,#'     '#,    #''#        ,####,    ,#,          
            ##       ##  ##   ,#'  ##            #'  '#       #'       ,# #          
            ##       ##  #######   ##           ,######,      #####,      #          
            '#,     ,#'  ##    ##  '#,     ,#' ,#      #,     #,   #      #          
             '#######'   ##     ##  '#######'  #'      '#     '####' #    #          



                #########################################################
                #                        -***-                          #
                #          Department of theory and spectroscopy        #
                #                                                       #
                #                      Frank Neese                      #
                #                                                       #
                #     Directorship, Architecture, Infrastructure        #
                #                    SHARK, DRIVERS                     #
                #        Core code/Algorithms in most modules           #
                #                                                       #
                #        Max Planck Institute fuer Kohlenforschung      #
                #                Kaiser Wilhelm Platz 1                 #
                #                 D-45470 Muelheim/Ruhr                 #
                #                      Germany                          #
                #                                                       #
                #                  All rights reserved                  #
                #                        -***-                          #
                #########################################################


                         Program Version 6.1.0  -  RELEASE   -
                                (GIT: $679e74b$)
                          ($2025-06-10 18:02:51 +0200$)


 With contributions from (in alphabetic order):
[Max-Planck-Institut fuer Kohlenforschung]                               
  Daniel Aravena         : Magnetic Suceptibility                        
  Michael Atanasov       : Ab Initio Ligand Field Theory (pilot matlab implementation)
  Alexander A. Auer      : GIAO ZORA, VPT2 properties, NMR spectrum      
  Ute Becker             : All parallelization in ORCA, NUMFREQ, NUMCALC 
  Giovanni Bistoni       : ED, misc. LED, open-shell LED, HFLD           
  Dmytro Bykov           : pre 5.0 version of the SCF Hessian            
  Marcos Casanova-Páez   : Triplet and SCS-CIS(D). UHF-(DLPNO)-IP/EA/STEOM-CCSD. UHF-CVS-IP/STEOM-CCSD   
  Vijay G. Chilkuri      : MRCI spin determinant printing, contributions to CSF-ICE 
  Pauline Colinet        : FMM embedding                                 
  Dipayan Datta          : RHF DLPNO-CCSD density                        
  Achintya Kumar Dutta   : EOM-CC, STEOM-CC                              
  Nicolas Foglia         : Exact transition moments, OPA infrastructure, MCD improvements    
  Dmitry Ganyushin       : Spin-Orbit,Spin-Spin,Magnetic field MRCI      
  Miquel Garcia-Rates    : C-PCM and meta-GGA Hessian, CCSD/C-PCM, Gaussian charge scheme 
  Tiago L. C. Gouveia    : GS-ROHF, GS-ROCIS                             
  Yang Guo               : DLPNO-NEVPT2, F12-NEVPT2, CIM, IAO-localization        
  Andreas Hansen         : Spin unrestricted coupled pair/coupled cluster methods 
  Ingolf Harden          : AUTO-CI MPn and infrastructure                
  Benjamin Helmich-Paris : MC-RPA, TRAH-(SCF,CASSCF), AVAS, COSX integrals, SCF dyn. polar., MC-PDFT, srDFT 
  Lee Huntington         : MR-EOM, pCC                                   
  Robert Izsak           : Overlap fitted RIJCOSX, COSX-SCS-MP3, EOM     
  Riya Kayal             : Wick's Theorem for AUTO-CI, AUTO-CI UHF-CCSDT 
  Emily Kempfer          : AUTO-CI RHF CISDT and CCSDT, approximate NEVPT4
  Christian Kollmar      : KDIIS, OOCD, Brueckner-CCSD(T), CCSD density, CASPT2, CASPT2-K, improved NEVPT2 
  Axel Koslowski         : Symmetry handling                             
  Simone Kossmann        : meta-GGA functionals, TD-DFT gradient, OOMP2, (MP2 Hessian; deprecated post 5.0) 
  Lucas Lang             : DCDCAS, Hyperfine gauge corrections, ICE-SOC+SSC
  Marvin Lechner         : AUTO-CI (C++ implementation), FIC-MRCC        
  Spencer Leger          : CASSCF response                               
  Dagmar Lenk            : GEPOL surface, SMD, ORCA-2-JSON               
  Dimitrios Liakos       : Extrapolation schemes; Compound Job, Property file
  Dimitrios Manganas     : Further ROCIS development; embedding schemes. LFT, Crystal Embedding 
  Dimitrios Pantazis     : SARC Basis sets                               
  Anastasios Papadopoulos: AUTO-CI, single reference methods and gradients 
  Taras Petrenko         : pre 6.0 DFT Hessian and TD-DFT gradient,  ECA, NRVS 
  Petra Pikulova         : Analytic Raman intensities                    
  Peter Pinski           : DLPNO-MP2, DLPNO-MP2 Gradient                 
  Shashank Vittal Rao    : ES-AILFT, MagRelax                            
  Christoph Reimann      : Effective Core Potentials                     
  Marius Retegan         : Local ZFS, SOC                                
  Christoph Riplinger    : Optimizer, TS searches, QM/MM, DLPNO-CCSD(T), (RO)-DLPNO pert. Triples 
  Michael Roemelt        : Original ROCIS implementation, recursive CI coupling coefficients
  Masaaki Saitow         : Open-shell DLPNO-CCSD energy and density      
  Barbara Sandhoefer     : DKH picture change effects                    
  Yorick L. A. Schmerwitz: GMF and freeze-and-release deltaSCF, NEB S-IDPP initial path                    
  Kantharuban Sivalingam : CASSCF convergence/infrastructure, NEVPT2, NEVPT3, NEVPT4(SD), FIC-MRCI and CEPA variants
  Bernardo de Souza      : ESD, SOC TD-DFT                               
  Georgi L. Stoychev     : AutoAux, RI-MP2 NMR, DLPNO-MP2 response, X2C  
  Van Anh Tran           : RI-MP2 g-tensors                              
  Willem Van den Heuvel  : Paramagnetic NMR                              
  Zikuan Wang            : NOTCH, Electric field optimization            
  Frank Wennmohs         : Technical directorship and infrastructure     
  Hang Xu                : AUTO-CI-Response properties                   
                                                                         
[FACCTs GmbH]                                                            
  Markus Bursch, Nicolas Foglia, Miquel Garcia-Rates, Ingolf Harden, Hagen Neugebauer, Anastasios Papadopoulos, 
  Christoph Riplinger, Bernardo de Souza, Georgi L. Stoychev                                                    
                                                                 
  APM, various basis sets, CI-OPT, improved COSX, DLPNO-Multilevel,           
  DOCKER, DRACO, updates on ESD, Fragmentator, GOAT, IRC, LR-CPCM, L-BFGS, MBIS, meta-GGA TD-DFT gradient, ML-optimized integration grids, 
  MM, NACMEs, nearIR, NEB, NEB-TS, NL-DFT gradient (VV10), 2- and 3-layer-ONIOM, interface openCOSMO-RS, QMMM,   
  Crystal-QMMM, RESP, rigid body optimization, SF, symmetry and pop. for TD-DFT, various functionals, SOLVATOR                                   
                                                                         
[Other institutions]                                                     
  V. Asgeirsson          : NEB                                           
  Christoph Bannwarth    : sTDA-DFT, sTD-DFT, PBEh-3c, B97-3c, D3        
  Giovanni Bistoni       : ETS/NOCV, ADLD/ADEX, COVALED                  
  Martin Brehm           : Molecular dynamics                            
  Ronald Cardenas        : ETS/NOCV                                      
  Martina Colucci        : COVALED                                       
  Sebastian Ehlert       : rSCAN, r2SCAN, r2SCAN-3c, D4, dhf basis sets  
  Marvin Friede          : D4 for Fr, Ra, Ac-Lr                          
  Lars Goerigk           : TD-DFT with DH, B97 family of functionals     
  Stefan Grimme          : VdW corrections, initial TS optimization, DFT functionals, gCP, sTDA/sTD-DF 
  Waldemar Hujo          : DFT-NL                                        
  H. Jonsson             : NEB                                           
  Holger Kruse           : gCP                                           
  Marcel Mueller         : wB97X-3c, vDZP basis set                      
  Hagen Neugebauer       : wr2SCAN, Native XTB                           
  Gianluca Regni         : ADLD/ADEX                                     
  Tobias Risthaus        : pre 6.0 range-separated hybrid DFT and stability analysis
  Lukas Wittmann         : regularized MP2, r2SCAN double-hybrids, wr2SCAN        
                                                                         
We gratefully acknowledge several colleagues who have allowed us to      
interface, adapt or use parts of their codes:                            
  Ed Valeev, F. Pavosevic, A. Kumar             : LibInt (2-el integral package), F12 methods 
  Garnet Chan, S. Sharma, J. Yang, R. Olivares  : DMRG                   
  Ulf Ekstrom                                   : XCFun DFT Library      
  Mihaly Kallay                                 : mrcc  (arbitrary order and MRCC methods)
  Frank Weinhold                                : gennbo (NPA and NBO analysis)           
  Simon Mueller                                 : openCOSMO-RS                            
  Christopher J. Cramer and Donald G. Truhlar   : smd solvation model                     
  S Lehtola, MJT Oliveira, MAL Marques          : LibXC Library                           
  Liviu Ungur et al                             : ANISO software                          


 Your calculation uses the libint2 library for the computation of 2-el integrals
 For citations please refer to: http://libint.valeyev.net

 Your ORCA version has been built with support for libXC version: 7.0.0
 For citations please refer to: https://libxc.gitlab.io

 This ORCA versions uses:
   CBLAS   interface :  Fast vector & matrix operations
   LAPACKE interface :  Fast linear algebra routines
   SCALAPACK package :  Parallel linear algebra routines
   Shared memory     :  Shared parallel matrices
   BLAS/LAPACK       :  OpenBLAS 0.3.29  USE64BITINT DYNAMIC_ARCH NO_AFFINITY Haswell SINGLE_THREADED
        Core in use  :  Haswell
   Copyright (c) 2011-2014, The OpenBLAS Project


  ***********************************
  * Starting time: Sat Aug 16 15:52:12 2025
  * Host name:     CHEMLAB02
  * Process ID:    1906890
  * Working dir.:  /home/vivek/mm-project/vivek/xtb-goat/B97-D/a/4
  ***********************************



***************************************
The coordinates will be read from file: /home/vivek/mm-project/vivek/xtb-goat/xtb-goat/a/A_CONF/4.xyz
***************************************


Your calculation utilizes empirical dispersion correction


Warning: RI is on but no J-basis has been assigned. Assigning Def2/J (nothing to worry about!)
================================================================================

----- Orbital basis set information -----
Your calculation utilizes the basis: 6-31G**
   H-He, Li-Ne : W. J. Hehre, R. Ditchfield and J.A. Pople, J. Chem. Phys. 56, 2257 (1972).
                 Note: He and Ne are unpublished basis sets taken from the Gaussian program.
                 Note: Li and B from J. D. Dill and J. A. Pople, J. Chem. Phys. 62, 2921 (1975).
   Na - Ar     : M. M. Francl, W. J. Pietro, W. J. Hehre, J. S. Binkley, M. S. Gordon, 
                 D. J. DeFrees and J. A. Pople, J. Chem. Phys. 77, 3654 (1982).
   K - Zn      : V. A. Rassolov, J. A. Pople, M. A. Ratner, and T. L. Windus, J. Chem. Phys. 109, 1223 (1998).

----- AuxJ basis set information -----
Your calculation utilizes the auxiliary basis: def2/J
   H-Rn: F. Weigend, Phys. Chem. Chem. Phys. 8, 1057 (2006).
   Fr-Lr: K. Eichkorn, F. Weigend, O. Treutler, R. Ahlrichs; Theor. Chem. Acc. 97, 119 (1997).

================================================================================
                                        WARNINGS
                       Please study these warnings very carefully!
================================================================================


INFO   : The exchange functional is Grimme's B97(-D)
         As described in S. Grimme, J. Comput. Chem. 27, 1787 (2006).
         Note that this functional defaults to a pure GGA. 

INFO   : The correlation functional is Grimme's B97(-D)
         As described in S. Grimme, J. Comput. Chem. 27, 1787 (2006).

================================================================================
                                       INPUT FILE
================================================================================
NAME = 4.inp
|  1> ! B97-D 6-31G** 
|  2> 
|  3> * xyzfile 0 1 /home/vivek/mm-project/vivek/xtb-goat/xtb-goat/a/A_CONF/4.xyz
|  4> 
|  5>                          ****END OF INPUT****
================================================================================

                       ****************************
                       * Single Point Calculation *
                       ****************************

---------------------------------
CARTESIAN COORDINATES (ANGSTROEM)
---------------------------------
  C     -4.719601    0.260888   -1.558017
  O     -4.676738    1.215289   -0.831203
  O     -3.669724   -0.137086   -2.285046
  C     -5.959353   -0.577665   -1.816774
  H     -2.903433    0.428799   -2.101572
  C     -6.624905   -0.014281   -3.088383
  H     -5.960034   -0.133797   -3.942256
  N     -5.609399   -1.982411   -1.892978
  H     -7.551928   -0.548724   -3.286458
  H     -6.850403    1.041198   -2.960704
  H     -6.635263   -0.438409   -0.965757
  H     -4.900016   -2.127507   -2.603261
  H     -6.424925   -2.531865   -2.140012

----------------------------
CARTESIAN COORDINATES (A.U.)
----------------------------
  NO LB      ZA    FRAG     MASS         X           Y           Z
   0 C     6.0000    0    12.011   -8.918753    0.493007   -2.944226
   1 O     8.0000    0    15.999   -8.837754    2.296563   -1.570746
   2 O     8.0000    0    15.999   -6.934773   -0.259056   -4.318111
   3 C     6.0000    0    12.011  -11.261546   -1.091630   -3.433206
   4 H     1.0000    0     1.008   -5.486693    0.810312   -3.971396
   5 C     6.0000    0    12.011  -12.519255   -0.026987   -5.836198
   6 H     1.0000    0     1.008  -11.262832   -0.252839   -7.449784
   7 N     7.0000    0    14.007  -10.600228   -3.746214   -3.577210
   8 H     1.0000    0     1.008  -14.271075   -1.036937   -6.210506
   9 H     1.0000    0     1.008  -12.945385    1.967579   -5.594920
  10 H     1.0000    0     1.008  -12.538829   -0.828473   -1.825016
  11 H     1.0000    0     1.008   -9.259689   -4.020405   -4.919451
  12 H     1.0000    0     1.008  -12.141348   -4.784532   -4.044037

--------------------------------
INTERNAL COORDINATES (ANGSTROEM)
--------------------------------
 C      0   0   0     0.000000000000     0.00000000     0.00000000
 O      1   0   0     1.200407036535     0.00000000     0.00000000
 O      1   2   0     1.337608332725   122.52171152     0.00000000
 C      1   2   3     1.518918710998   124.83559468   183.37330100
 H      3   1   2     0.970098269945   110.09885776     2.21114937
 C      4   1   2     1.541865441416   106.92334986    94.23370425
 H      6   4   1     1.088777365957   110.06494544    63.27719276
 N      4   1   2     1.449684502518   110.29667021   219.32903007
 H      6   4   1     1.088225443551   109.77790172   183.10419853
 H      6   4   1     1.086824447606   110.33610637   302.95432003
 H      4   1   2     1.095662413329   107.51942486   337.14268684
 H      8   4   1     1.014287664907   110.13667692   303.96707140
 H      8   4   1     1.013907367741   110.10601739   184.57164208

---------------------------
INTERNAL COORDINATES (A.U.)
---------------------------
 C      0   0   0     0.000000000000     0.00000000     0.00000000
 O      1   0   0     2.268440548283     0.00000000     0.00000000
 O      1   2   0     2.527713423301   122.52171152     0.00000000
 C      1   2   3     2.870340383476   124.83559468   183.37330100
 H      3   1   2     1.833220053187   110.09885776     2.21114937
 C      4   1   2     2.913703419634   106.92334986    94.23370425
 H      6   4   1     2.057491042471   110.06494544    63.27719276
 N      4   1   2     2.739506690349   110.29667021   219.32903007
 H      6   4   1     2.056448060277   109.77790172   183.10419853
 H      6   4   1     2.053800561625   110.33610637   302.95432003
 H      4   1   2     2.070501896423   107.51942486   337.14268684
 H      8   4   1     1.916725907689   110.13667692   303.96707140
 H      8   4   1     1.916007250195   110.10601739   184.57164208

---------------------
BASIS SET INFORMATION
---------------------
There are 4 groups of distinct atoms

 Group   1 Type C   : 10s4p1d contracted to 3s2p1d pattern {631/31/1}
 Group   2 Type O   : 10s4p1d contracted to 3s2p1d pattern {631/31/1}
 Group   3 Type H   : 4s1p contracted to 2s1p pattern {31/1}
 Group   4 Type N   : 10s4p1d contracted to 3s2p1d pattern {631/31/1}

Atom   0C    basis set group =>   1
Atom   1O    basis set group =>   2
Atom   2O    basis set group =>   2
Atom   3C    basis set group =>   1
Atom   4H    basis set group =>   3
Atom   5C    basis set group =>   1
Atom   6H    basis set group =>   3
Atom   7N    basis set group =>   4
Atom   8H    basis set group =>   3
Atom   9H    basis set group =>   3
Atom  10H    basis set group =>   3
Atom  11H    basis set group =>   3
Atom  12H    basis set group =>   3
---------------------------------
AUXILIARY/J BASIS SET INFORMATION
---------------------------------
There are 4 groups of distinct atoms

 Group   1 Type C   : 12s5p4d2f1g contracted to 6s4p3d1f1g pattern {711111/2111/211/2/1}
 Group   2 Type O   : 12s5p4d2f1g contracted to 6s4p3d1f1g pattern {711111/2111/211/2/1}
 Group   3 Type H   : 5s2p1d contracted to 3s1p1d pattern {311/2/1}
 Group   4 Type N   : 12s5p4d2f1g contracted to 6s4p3d1f1g pattern {711111/2111/211/2/1}

Atom   0C    basis set group =>   1
Atom   1O    basis set group =>   2
Atom   2O    basis set group =>   2
Atom   3C    basis set group =>   1
Atom   4H    basis set group =>   3
Atom   5C    basis set group =>   1
Atom   6H    basis set group =>   3
Atom   7N    basis set group =>   4
Atom   8H    basis set group =>   3
Atom   9H    basis set group =>   3
Atom  10H    basis set group =>   3
Atom  11H    basis set group =>   3
Atom  12H    basis set group =>   3
------------------------------------------------------------------------------
                             ORCA STARTUP CALCULATIONS
                           -- RI-GTO INTEGRALS CHOSEN --
------------------------------------------------------------------------------
------------------------------------------------------------------------------
                   ___                                                        
                  /   \      - P O W E R E D   B Y -                         
                 /     \                                                     
                 |  |  |   _    _      __       _____    __    __             
                 |  |  |  | |  | |    /  \     |  _  \  |  |  /  |          
                  \  \/   | |  | |   /    \    | | | |  |  | /  /          
                 / \  \   | |__| |  /  /\  \   | |_| |  |  |/  /          
                |  |  |   |  __  | /  /__\  \  |    /   |      \           
                |  |  |   | |  | | |   __   |  |    \   |  |\   \          
                \     /   | |  | | |  |  |  |  | |\  \  |  | \   \       
                 \___/    |_|  |_| |__|  |__|  |_| \__\ |__|  \__/        
                                                                              
                      - O R C A' S   B I G   F R I E N D -                    
                                      &                                       
                       - I N T E G R A L  F E E D E R -                       
                                                                              
 v1 FN, 2020, v2 2021, v3 2022-2024                                           
------------------------------------------------------------------------------


----------------------
SHARK INTEGRAL PACKAGE
----------------------

Number of atoms                             ...     13
Number of basis functions                   ...    119
Number of shells                            ...     57
Maximum angular momentum                    ...      2
Integral batch strategy                     ... SHARK/LIBINT Hybrid
RI-J (if used) integral strategy            ... SPLIT-RIJ (Revised 2003 algorithm where possible)
Printlevel                                  ...      1
Contraction scheme used                     ... SEGMENTED contraction
Prescreening option                         ... SCHWARTZ
   Thresh                                   ... 1.000e-10
   Tcut                                     ... 1.000e-11
   Tpresel                                  ... 1.000e-11 
Coulomb Range Separation                    ... NOT USED
Exchange Range Separation                   ... NOT USED
Multipole approximations                    ... NOT USED
Finite Nucleus Model                        ... NOT USED
CABS basis                                  ... NOT available
Auxiliary Coulomb fitting basis             ... AVAILABLE
   # of basis functions in Aux-J            ...    371
   # of shells in Aux-J                     ...    125
   Maximum angular momentum in Aux-J        ...      4
Auxiliary J/K fitting basis                 ... NOT available
Auxiliary Correlation fitting basis         ... NOT available
Auxiliary 'external' fitting basis          ... NOT available

Checking pre-screening integrals            ... done (  0.0 sec) Dimension = 57
   => SHARK Basis and OBASIS are compatible. Storing Pre-screening
Shell pair information
Shell pair cut-off parameter TPreSel        ...   1.0e-11
Total number of shell pairs                 ...      1653
Shell pairs after pre-screening             ...      1592
Total number of primitive shell pairs       ...      8022
Primitive shell pairs kept                  ...      5513
          la=0 lb=0:    503 shell pairs
          la=1 lb=0:    582 shell pairs
          la=1 lb=1:    183 shell pairs
          la=2 lb=0:    190 shell pairs
          la=2 lb=1:    113 shell pairs
          la=2 lb=2:     21 shell pairs

Checking whether 4 symmetric matrices of dimension 119 fit in memory
:Max Core in MB      =   4096.00
 MB in use           =      5.52
 MB left             =   4090.48
 MB needed           =      0.22
 Data fit in memory  = YES
Calculating RI/J V-Matrix + Cholesky decomp.... done (  0.0 sec)
Calculating Nuclear repulsion               ... done (  0.0 sec) ENN=    250.876956913001 Eh

Diagonalization of the overlap matrix:
Smallest eigenvalue                        ... 3.882e-03
Time for diagonalization                   ...    0.001 sec
Threshold for overlap eigenvalues          ... 1.000e-07
Number of eigenvalues below threshold      ... 0
Time for construction of square roots      ...    0.000 sec
Total time needed                          ...    0.001 sec

-------------------
DFT GRID GENERATION
-------------------

General Integration Accuracy     IntAcc      ... 4.388
Radial Grid Type                 RadialGrid  ... OptM3 with GC (2021)
Angular Grid (max. ang.)         AngularGrid ... 4 (Lebedev-302)
Angular grid pruning method      GridPruning ... 4 (adaptive)
Weight generation scheme         WeightScheme... mBecke (2022)
Basis function cutoff            BFCut       ... 1.0000e-10
Integration weight cutoff        WCut        ... 1.0000e-14
Partially contracted basis set               ... off
Rotationally invariant grid construction     ... off
Angular grids for H and He will be reduced by one unit

Total number of grid points                  ...    58935
Total number of batches                      ...      929
Average number of points per batch           ...       63
Average number of grid points per atom       ...     4533
Grids setup in   0.2 sec
Initializing property integral containers    ... done (  0.0 sec)

SHARK setup successfully completed in   0.2 seconds

Maximum memory used throughout the entire STARTUP-calculation: 24.8 MB
-------------------------------------------------------------------------------
                                 ORCA GUESS
                   Start orbitals & Density for SCF / CASSCF
-------------------------------------------------------------------------------

------------
SCF SETTINGS
------------
Hamiltonian:
 Density Functional     Method          .... DFT(GTOs)
 Exchange Functional    Exchange        .... B97(D)
 Correlation Functional Correlation     .... B97(D)
 Gradients option       PostSCFGGA      .... off
 RI-approximation to the Coulomb term is turned on
   Number of AuxJ basis functions       .... 371


General Settings:
 Integral files         IntName         .... 4
 Hartree-Fock type      HFTyp           .... RHF
 Total Charge           Charge          ....    0
 Multiplicity           Mult            ....    1
 Number of Electrons    NEL             ....   48
 Basis Dimension        Dim             ....  119
 Nuclear Repulsion      ENuc            ....    250.8769569130 Eh

Convergence Acceleration:
 AO-DIIS                CNVDIIS         .... on
   Start iteration      DIISMaxIt       ....    12
   Startup error        DIISStart       ....  0.200000
   # of expansion vecs  DIISMaxEq       ....     5
   Bias factor          DIISBfac        ....   1.050
   Max. coefficient     DIISMaxC        ....  10.000
 MO-DIIS                CNVKDIIS        .... off
 Trust-Rad. Augm. Hess. CNVTRAH         .... auto
   Auto Start mean grad. ratio tolernc. ....  1.125000
   Auto Start start iteration           ....    50
   Auto Start num. interpolation iter.  ....    10
   Max. Number of Micro iterations      ....    24
   Max. Number of Macro iterations      .... Maxiter - #DIIS iter
   Number of Davidson start vectors     ....     2
   Converg. threshold    (grad. norm)   ....   5.000e-05
   Grad. Scal. Fac. for Micro threshold ....   0.100
   Minimum threshold for Micro iter.    ....   1.000e-02
   NR start threshold (gradient norm)   ....   1.000e-04
   Initial trust radius                 ....   0.400
   Minimum AH scaling param. (alpha)    ....   1.000
   Maximum AH scaling param. (alpha)    .... 1000.000
   Quad. conv. algorithm                .... NR
   White noise on init. David. guess    .... on
   Maximum white noise                  ....   0.010
   Pseudo random numbers                .... off
   Inactive MOs                         .... canonical
   Orbital update algorithm             .... Taylor
   Preconditioner                       .... Diag
   Full preconditioner red. dimension   ....   250
 SOSCF                 CNVSOSCF           .... on
   Start iteration     SOSCFMaxIt         ....   150
   Startup grad/error  SOSCFStart         ....  0.003300
   Hessian update      SOSCFHessUp        .... L-BFGS
   Autom. constraints  SOSCFAutoConstrain .... off
 Level Shifting         CNVShift        .... on
   Level shift para.    LevelShift      ....    0.2500
   Turn off err/grad.   ShiftErr        ....    0.0010
 Zerner damping         CNVZerner       .... off
 Static damping         CNVDamp         .... on
   Fraction old density DampFac         ....    0.7000
   Max. Damping (<1)    DampMax         ....    0.9800
   Min. Damping (>=0)   DampMin         ....    0.0000
   Turn off err/grad.   DampErr         ....    0.1000

SCF Procedure:
 Maximum # iterations   MaxIter         ....   125
 SCF integral mode      SCFMode         .... Direct
   Integral package                     .... SHARK and LIBINT hybrid scheme
 Reset frequency        DirectResetFreq ....    20
 Integral Threshold     Thresh          ....  1.000e-10 Eh
 Primitive CutOff       TCut            ....  1.000e-11 Eh

Convergence Tolerance:
 Convergence Check Mode ConvCheckMode   .... Total+1el-Energy
 Convergence forced     ConvForced      .... 0
 Energy Change          TolE            ....  1.000e-06 Eh
 1-El. energy change                    ....  1.000e-03 Eh
 Orbital Gradient       TolG            ....  5.000e-05
 Orbital Rotation angle TolX            ....  5.000e-05
 DIIS Error             TolErr          ....  1.000e-06

------------------------------
INITIAL GUESS: MODEL POTENTIAL
------------------------------
Loading Hartree-Fock densities                     ... done
Calculating cut-offs                               ... done
Initializing the effective Hamiltonian             ... done
Setting up the integral package (SHARK)            ... done
Starting the Coulomb interaction                   ... done (   0.0 sec)
Making the grid                                    ... done (   0.0 sec)
Mapping shells                                     ... done
Starting the XC term evaluation                    ... done (   0.0 sec)
  promolecular density results
     # of electrons  =     47.995610178
     EX              =    -39.859744126
     EC              =     -2.124074496
     EX+EC           =    -41.983818622
Transforming the Hamiltonian                       ... done (   0.0 sec)
Diagonalizing the Hamiltonian                      ... done (   0.0 sec)
Back transforming the eigenvectors                 ... done (   0.0 sec)
Now organizing SCF variables                       ... done
                      ------------------
                      INITIAL GUESS DONE (   0.1 sec)
                      ------------------
             **** ENERGY FILE WAS UPDATED (4.en.tmp) ****
Finished Guess after   0.1 sec
Maximum memory used throughout the entire GUESS-calculation: 9.4 MB

-------------------------------------------------------------------------------------------
                                      ORCA LEAN-SCF
                              memory conserving SCF solver
-------------------------------------------------------------------------------------------

----------------------------------------D-I-I-S--------------------------------------------
Iteration    Energy (Eh)           Delta-E    RMSDP     MaxDP     DIISErr   Damp  Time(sec)
-------------------------------------------------------------------------------------------
               ***  Starting incremental Fock matrix formation  ***
    1    -323.2695982939098940     0.00e+00  4.85e-03  9.72e-02  2.60e-01  0.700   0.2
    2    -323.3991387354473090    -1.30e-01  3.01e-03  5.38e-02  1.01e-01  0.700   0.2
                               ***Turning on AO-DIIS***
    3    -323.4383371683767336    -3.92e-02  1.11e-03  1.59e-02  2.66e-02  0.700   0.2
    4    -323.4641693759513146    -2.58e-02  1.48e-03  1.88e-02  1.41e-02  0.000   0.2
    5    -323.5241649714445202    -6.00e-02  5.01e-04  8.97e-03  9.44e-03  0.000   0.2
                              *** Initializing SOSCF ***
---------------------------------------S-O-S-C-F--------------------------------------
Iteration    Energy (Eh)           Delta-E    RMSDP     MaxDP     MaxGrad    Time(sec)
--------------------------------------------------------------------------------------
    6    -323.5247580150480644    -5.93e-04  1.89e-04  3.30e-03  2.85e-03     0.2
               *** Restarting incremental Fock matrix formation ***
    7    -323.5248012518646874    -4.32e-05  1.70e-04  2.64e-03  7.85e-04     0.2
    8    -323.5247827460412964     1.85e-05  8.96e-05  2.12e-03  2.23e-03     0.2
    9    -323.5248080881964370    -2.53e-05  6.04e-05  1.02e-03  2.63e-04     0.2
   10    -323.5248062768752106     1.81e-06  3.35e-05  5.71e-04  2.90e-04     0.2
   11    -323.5248093659751021    -3.09e-06  1.05e-05  1.97e-04  3.55e-05     0.2
   12    -323.5248093091549890     5.68e-08  5.89e-06  1.25e-04  5.57e-05     0.2
                 **** Energy Check signals convergence ****

               *****************************************************
               *                     SUCCESS                       *
               *           SCF CONVERGED AFTER  12 CYCLES          *
               *****************************************************

             **** ENERGY FILE WAS UPDATED (4.en.tmp) ****

----------------
TOTAL SCF ENERGY
----------------

Total Energy       :       -323.52480940761700 Eh           -8803.55763 eV

Components:
Nuclear Repulsion  :        250.87695691300061 Eh            6826.70906 eV
Electronic Energy  :       -574.40176632061764 Eh          -15630.26669 eV
One Electron Energy:       -938.10685488852403 Eh          -25527.18530 eV
Two Electron Energy:        363.70508856790639 Eh            9896.91861 eV

Virial components:
Potential Energy   :       -645.40785338727437 Eh          -17562.44055 eV
Kinetic Energy     :        321.88304397965743 Eh            8758.88292 eV
Virial Ratio       :          2.00510050298910

DFT components:
N(Alpha)           :       24.000009525902 electrons
N(Beta)            :       24.000009525902 electrons
N(Total)           :       48.000019051803 electrons
E(X)               :      -40.771009030777 Eh       
E(C)               :       -2.115930478072 Eh       
E(XC)              :      -42.886939508848 Eh       

---------------
SCF CONVERGENCE
---------------

  Last Energy change         ...   -5.6820e-08  Tolerance :   1.0000e-06
  Last MAX-Density change    ...    1.2477e-04  Tolerance :   1.0000e-05
  Last RMS-Density change    ...    5.8943e-06  Tolerance :   1.0000e-06
  Last DIIS Error            ...    2.8516e-03  Tolerance :   1.0000e-06
  Last Orbital Gradient      ...    5.5683e-05  Tolerance :   5.0000e-05
  Last Orbital Rotation      ...    5.5110e-05  Tolerance :   5.0000e-05


----------------
ORBITAL ENERGIES
----------------

  NO   OCC          E(Eh)            E(eV) 
   0   2.0000     -18.815060      -511.9838 
   1   2.0000     -18.749764      -510.2070 
   2   2.0000     -13.987175      -380.6104 
   3   2.0000     -10.029270      -272.9103 
   4   2.0000      -9.948744      -270.7191 
   5   2.0000      -9.905323      -269.5375 
   6   2.0000      -1.021767       -27.8037 
   7   2.0000      -0.929917       -25.3043 
   8   2.0000      -0.817198       -22.2371 
   9   2.0000      -0.679809       -18.4985 
  10   2.0000      -0.607433       -16.5291 
  11   2.0000      -0.545028       -14.8310 
  12   2.0000      -0.457075       -12.4376 
  13   2.0000      -0.428055       -11.6480 
  14   2.0000      -0.410463       -11.1693 
  15   2.0000      -0.400334       -10.8936 
  16   2.0000      -0.377319       -10.2674 
  17   2.0000      -0.360557        -9.8113 
  18   2.0000      -0.350974        -9.5505 
  19   2.0000      -0.322731        -8.7820 
  20   2.0000      -0.317900        -8.6505 
  21   2.0000      -0.271930        -7.3996 
  22   2.0000      -0.221969        -6.0401 
  23   2.0000      -0.188872        -5.1395 
  24   0.0000      -0.014086        -0.3833 
  25   0.0000       0.043902         1.1946 
  26   0.0000       0.077288         2.1031 
  27   0.0000       0.113866         3.0985 
  28   0.0000       0.120713         3.2848 
  29   0.0000       0.138934         3.7806 
  30   0.0000       0.154411         4.2017 
  31   0.0000       0.160651         4.3715 
  32   0.0000       0.180890         4.9223 
  33   0.0000       0.191972         5.2238 
  34   0.0000       0.239546         6.5184 
*Only the first 10 virtual orbitals were printed.

                    ********************************
                    * MULLIKEN POPULATION ANALYSIS *
                    ********************************

-----------------------
MULLIKEN ATOMIC CHARGES
-----------------------
   0 C :    0.529354
   1 O :   -0.415122
   2 O :   -0.462376
   3 C :   -0.037441
   4 H :    0.321189
   5 C :   -0.340296
   6 H :    0.117922
   7 N :   -0.569414
   8 H :    0.110843
   9 H :    0.124527
  10 H :    0.135571
  11 H :    0.248241
  12 H :    0.237003
Sum of atomic charges:   -0.0000000

--------------------------------
MULLIKEN REDUCED ORBITAL CHARGES
--------------------------------
  0 C s       :     2.972801  s :     2.972801
      pz      :     0.760056  p :     2.372279
      px      :     0.808302
      py      :     0.803920
      dz2     :     0.023216  d :     0.125566
      dxz     :     0.028551
      dyz     :     0.017636
      dx2y2   :     0.021950
      dxy     :     0.034213

  1 O s       :     3.856906  s :     3.856906
      pz      :     1.412002  p :     4.529862
      px      :     1.737255
      py      :     1.380604
      dz2     :     0.007434  d :     0.028354
      dxz     :     0.002947
      dyz     :     0.007617
      dx2y2   :     0.005535
      dxy     :     0.004821

  2 O s       :     3.822655  s :     3.822655
      pz      :     1.684982  p :     4.617126
      px      :     1.267818
      py      :     1.664325
      dz2     :     0.004838  d :     0.022594
      dxz     :     0.004588
      dyz     :     0.003531
      dx2y2   :     0.002356
      dxy     :     0.007280

  3 C s       :     3.200269  s :     3.200269
      pz      :     0.991557  p :     2.779822
      px      :     0.976375
      py      :     0.811890
      dz2     :     0.009612  d :     0.057350
      dxz     :     0.010281
      dyz     :     0.013049
      dx2y2   :     0.011184
      dxy     :     0.013224

  4 H s       :     0.640730  s :     0.640730
      pz      :     0.008908  p :     0.038081
      px      :     0.016081
      py      :     0.013092

  5 C s       :     3.258561  s :     3.258561
      pz      :     0.975071  p :     3.052543
      px      :     1.028780
      py      :     1.048692
      dz2     :     0.006990  d :     0.029192
      dxz     :     0.008134
      dyz     :     0.002770
      dx2y2   :     0.006421
      dxy     :     0.004877

  6 H s       :     0.870607  s :     0.870607
      pz      :     0.004933  p :     0.011471
      px      :     0.003934
      py      :     0.002604

  7 N s       :     3.593350  s :     3.593350
      pz      :     1.611653  p :     3.947824
      px      :     1.214616
      py      :     1.121555
      dz2     :     0.004561  d :     0.028241
      dxz     :     0.007860
      dyz     :     0.003968
      dx2y2   :     0.005065
      dxy     :     0.006787

  8 H s       :     0.877564  s :     0.877564
      pz      :     0.002709  p :     0.011593
      px      :     0.005451
      py      :     0.003433

  9 H s       :     0.863891  s :     0.863891
      pz      :     0.002517  p :     0.011582
      px      :     0.002747
      py      :     0.006318

 10 H s       :     0.853767  s :     0.853767
      pz      :     0.005173  p :     0.010662
      px      :     0.003762
      py      :     0.001727

 11 H s       :     0.727515  s :     0.727515
      pz      :     0.009826  p :     0.024244
      px      :     0.009593
      py      :     0.004825

 12 H s       :     0.738959  s :     0.738959
      pz      :     0.007622  p :     0.024038
      px      :     0.009110
      py      :     0.007306



                     *******************************
                     * LOEWDIN POPULATION ANALYSIS *
                     *******************************

----------------------
LOEWDIN ATOMIC CHARGES
----------------------
   0 C :    0.123292
   1 O :   -0.212894
   2 O :   -0.140657
   3 C :   -0.042965
   4 H :    0.183707
   5 C :   -0.207908
   6 H :    0.072554
   7 N :   -0.256894
   8 H :    0.070937
   9 H :    0.077822
  10 H :    0.085239
  11 H :    0.124996
  12 H :    0.122770

-------------------------------
LOEWDIN REDUCED ORBITAL CHARGES
-------------------------------
  0 C s       :     2.848854  s :     2.848854
      pz      :     0.861551  p :     2.729621
      px      :     0.923140
      py      :     0.944930
      dz2     :     0.050276  d :     0.298234
      dxz     :     0.069017
      dyz     :     0.045329
      dx2y2   :     0.050322
      dxy     :     0.083290

  1 O s       :     3.552432  s :     3.552432
      pz      :     1.441713  p :     4.602086
      px      :     1.715515
      py      :     1.444858
      dz2     :     0.010693  d :     0.058375
      dxz     :     0.005507
      dyz     :     0.020765
      dx2y2   :     0.012104
      dxy     :     0.009306

  2 O s       :     3.467542  s :     3.467542
      pz      :     1.675794  p :     4.622695
      px      :     1.294339
      py      :     1.652562
      dz2     :     0.008326  d :     0.050420
      dxz     :     0.012772
      dyz     :     0.005232
      dx2y2   :     0.008006
      dxy     :     0.016084

  3 C s       :     2.882605  s :     2.882605
      pz      :     1.054658  p :     3.030571
      px      :     1.035499
      py      :     0.940415
      dz2     :     0.021856  d :     0.129789
      dxz     :     0.023633
      dyz     :     0.028385
      dx2y2   :     0.025466
      dxy     :     0.030449

  4 H s       :     0.700263  s :     0.700263
      pz      :     0.025758  p :     0.116030
      px      :     0.049443
      py      :     0.040829

  5 C s       :     2.931726  s :     2.931726
      pz      :     1.048446  p :     3.213716
      px      :     1.075819
      py      :     1.089451
      dz2     :     0.015015  d :     0.062466
      dxz     :     0.017720
      dyz     :     0.006638
      dx2y2   :     0.012876
      dxy     :     0.010217

  6 H s       :     0.887287  s :     0.887287
      pz      :     0.019103  p :     0.040159
      px      :     0.013766
      py      :     0.007289

  7 N s       :     3.193651  s :     3.193651
      pz      :     1.593808  p :     4.005234
      px      :     1.231054
      py      :     1.180371
      dz2     :     0.007278  d :     0.058010
      dxz     :     0.012728
      dyz     :     0.007155
      dx2y2   :     0.014247
      dxy     :     0.016603

  8 H s       :     0.889194  s :     0.889194
      pz      :     0.008016  p :     0.039869
      px      :     0.020533
      py      :     0.011320

  9 H s       :     0.881437  s :     0.881437
      pz      :     0.007318  p :     0.040741
      px      :     0.008050
      py      :     0.025373

 10 H s       :     0.876403  s :     0.876403
      pz      :     0.019086  p :     0.038358
      px      :     0.013839
      py      :     0.005432

 11 H s       :     0.794395  s :     0.794395
      pz      :     0.036032  p :     0.080609
      px      :     0.031223
      py      :     0.013354

 12 H s       :     0.798027  s :     0.798027
      pz      :     0.023158  p :     0.079202
      px      :     0.032862
      py      :     0.023182



                      *****************************
                      * MAYER POPULATION ANALYSIS *
                      *****************************

  NA   - Mulliken gross atomic population
  ZA   - Total nuclear charge
  QA   - Mulliken gross atomic charge
  VA   - Mayer's total valence
  BVA  - Mayer's bonded valence
  FA   - Mayer's free valence

  ATOM       NA         ZA         QA         VA         BVA        FA
  0 C      5.4706     6.0000     0.5294     3.9726     3.9726    -0.0000
  1 O      8.4151     8.0000    -0.4151     2.1145     2.1145     0.0000
  2 O      8.4624     8.0000    -0.4624     2.0433     2.0433    -0.0000
  3 C      6.0374     6.0000    -0.0374     3.8844     3.8844    -0.0000
  4 H      0.6788     1.0000     0.3212     0.9172     0.9172    -0.0000
  5 C      6.3403     6.0000    -0.3403     3.8501     3.8501    -0.0000
  6 H      0.8821     1.0000     0.1179     0.9608     0.9608    -0.0000
  7 N      7.5694     7.0000    -0.5694     2.8584     2.8584     0.0000
  8 H      0.8892     1.0000     0.1108     0.9586     0.9586     0.0000
  9 H      0.8755     1.0000     0.1245     0.9552     0.9552     0.0000
 10 H      0.8644     1.0000     0.1356     0.9476     0.9476     0.0000
 11 H      0.7518     1.0000     0.2482     0.9270     0.9270    -0.0000
 12 H      0.7630     1.0000     0.2370     0.9234     0.9234    -0.0000

  Mayer bond orders larger than 0.100000
B(  0-C ,  1-O ) :   1.9319 B(  0-C ,  2-O ) :   1.0853 B(  0-C ,  3-C ) :   0.9324 
B(  2-O ,  4-H ) :   0.8506 B(  3-C ,  5-C ) :   0.9710 B(  3-C ,  7-N ) :   1.0204 
B(  3-C , 10-H ) :   0.9372 B(  5-C ,  6-H ) :   0.9562 B(  5-C ,  8-H ) :   0.9569 
B(  5-C ,  9-H ) :   0.9463 B(  7-N , 11-H ) :   0.8957 B(  7-N , 12-H ) :   0.9075 


-------
TIMINGS
-------

Total SCF time: 0 days 0 hours 0 min 2 sec 

Total time                  ....       2.651 sec
Sum of individual times     ....       2.464 sec  ( 93.0%)

SCF preparation             ....       0.022 sec  (  0.8%)
Fock matrix formation       ....       2.422 sec  ( 91.3%)
  Startup                   ....       0.000 sec  (  0.0% of F)
  Split-RI-J                ....       0.639 sec  ( 26.4% of F)
  XC integration            ....       1.959 sec  ( 80.9% of F)
    XC Preparation          ....       0.000 sec  (  0.0% of XC)
    Basis function eval.    ....       0.677 sec  ( 34.6% of XC)
    Density eval.           ....       0.375 sec  ( 19.1% of XC)
    XC-Functional eval.     ....       0.447 sec  ( 22.8% of XC)
    XC-Potential eval.      ....       0.409 sec  ( 20.9% of XC)
Diagonalization             ....       0.000 sec  (  0.0%)
Density matrix formation    ....       0.002 sec  (  0.1%)
Total Energy calculation    ....       0.000 sec  (  0.0%)
Population analysis         ....       0.001 sec  (  0.1%)
Orbital Transformation      ....       0.002 sec  (  0.1%)
Orbital Orthonormalization  ....       0.000 sec  (  0.0%)
DIIS solution               ....       0.009 sec  (  0.4%)
SOSCF solution              ....       0.005 sec  (  0.2%)
Finished LeanSCF after   2.7 sec

Maximum memory used throughout the entire LEANSCF-calculation: 12.8 MB



-------------------------------------------------------------------------------
                          DFT DISPERSION CORRECTION                            
-------------------------------------------------------------------------------
Active option DFTDOPT                   ...         2   
Final C6-coefficient scaling factor     ...     1.250
Final VDW-radii scaling factor          ...     1.100
Damping factor alpha                    ...    20.000
-------------------------   ----------------
Dispersion correction           -0.013273193
-------------------------   ----------------


-------------------------   --------------------
FINAL SINGLE POINT ENERGY      -323.538082600712
-------------------------   --------------------


------------------------------------------------------------------------------
                              ORCA PROPERTY CALCULATIONS
------------------------------------------------------------------------------

GBWName                                 ... 4.gbw
Number of atoms                         ...     13
Number of basis functions               ...    119
Max core memory                         ...   4096 MB

Electric properties:
Dipole moment                           ... YES
Quadrupole moment                       ...  NO
Static polarizability (Dipole/Dipole)   ...  NO
Static polarizability (Dipole/Quad.)    ...  NO
Static polarizability (Quad./Quad.)     ...  NO
Static polarizability (Velocity)        ...  NO
Static hyperpolarizability              ...  NO

Atomic electric properties:
Dipole moment                           ...  NO
Quadrupole moment                       ...  NO
Static polarizability                   ...  NO

Choice of electric origin               ... Center of mass
Position of electric origin             ...    -9.788600    -0.399576    -3.651278

General magnetic properties:
Magnetizability                         ...  NO

EPR properties:
g-Tensor (aka g-matrix)                 ...  NO
Zero-Field splitting spin-orbit         ...  NO
Zero-field splitting spin-spin          ...  NO
Hyperfine couplings                     ...  NO (   0 nuclei)
Quadrupole couplings                    ...  NO (   0 nuclei)
Contact density                         ...  NO (   0 nuclei)

NMR properties:
Chemical shifts                         ...  NO (   0 nuclei)
Spin-rotation constants                 ...  NO (   0 nuclei)
Spin-spin couplings                     ...  NO (   0 nuclei,    0 pairs)

Choice of magnetic origin               ... GIAO
Position of magnetic origin             ...     0.000000     0.000000     0.000000

Properties with geometric perturbations:
SCF Hessian                             ...  NO
IR spectrum                             ...  NO
VCD spectrum                            ...  NO
X-ray spectroscopy properties:
SCF XES/XAS/RIXS spectra                ...  NO

SCF SOC stabilization energy            ...  NO
Diagonal Born-Oppenheimer correction    ...  NO

-------------
DIPOLE MOMENT
-------------

Method             : SCF
Type of density    : Electron Density
Multiplicity       :   1
Irrep              :   0
Energy             :  -323.5248094076169991 Eh
Basis              : AO
                                X                 Y                 Z
Electronic contribution:      4.594486001       2.284597703       3.273475103
Nuclear contribution   :     -4.632205288      -2.642760067      -4.186881261
                        -----------------------------------------
Total Dipole Moment    :     -0.037719287      -0.358162364      -0.913406158
                        -----------------------------------------
Magnitude (a.u.)       :      0.981842061
Magnitude (Debye)      :      2.495644187



--------------------
Rotational spectrum 
--------------------
 
Rotational constants in cm-1:             0.169829             0.098273             0.083338 
Rotational constants in MHz :          5091.352144          2946.141182          2498.402219 

Dipole components along the rotational axes: 
x,y,z [a.u.] :    -0.583752     0.214457    -0.759773 
x,y,z [Debye]:    -1.483780     0.545107    -1.931190 

 

Dipole moment calculation done in   0.0 sec 

Maximum memory used throughout the entire PROP-calculation: 7.1 MB

--------------------------------
SUGGESTED CITATIONS FOR THIS RUN
--------------------------------

Below you find a list of papers that are relevant to this ORCA run
We neither can nor want to force you to cite these papers, but we appreciate if you do
You receive ORCA, which is the product of decades of hard work by many enthusiastic individuals, for free
The only thing we kindly ask in return is that you cite our papers,
We deeply appreciate it, if you show your appreciation for ORCA by not just citing the generic ORCA reference.

Please note that relegating all ORCA citations to the supporting information does *not* help us.
SI sections are not indexed - citations you put there will not count into any citation statistics
But we need these citations in order to attract the funding resources that allow us to do what we are doing

Therefore, if you are a happy ORCA user, please consider citing a few of the papers listed below in the main body of your paper

In addition to the list printed below, the program has created the file 4.bibtex that contains the list in bibtex format
You can import this file easily into all common literature databanks and citation aid programs


List of essential papers. We consider these as the minimum necessary citations

  1. Neese, F.
     Software update: the ORCA program system, version 6.0
     WIRES Comput. Molec. Sci. 2025 15(1), e70019
     doi.org/10.1002/wcms.7019

List of papers to cite with high priority. The work reported in these papers was absolutely
necessary for this run to complete.
Our perspective: the developers of density functionals and basis sets usually get cited in chemistry papers
Good! But without the algorithms to do something with them, the functionals or basis sets would not do anything.
Hence, in our opinion, the algorithm design and method developments papers are equally worthy of getting cited

  1. Neese, F.
     An improvement of the resolution of the identity approximation for the formation of the Coulomb matrix
     J. Comp. Chem. 2003 24(14), 1740-1747
     doi.org/10.1002/jcc.10318
  2. Grimme, S.
     Semiempirical GGA-type density functional constructed with a long-range dispersion correction
     J.Comput.Chem. 2006 27(15), 1787-1799
     doi.org/10.1002/jcc.20495
  3. Neese, F.
     The SHARK Integral Generation and Digestion System
     J. Comp. Chem. 2022 44(3), 381
     doi.org/10.1002/jcc.26942

List of suggested additional citations. These are papers that are important in the 'surrounding' of 
of this run, or papers that preceded the highly important papers. If you like your results we are grateful for a citation.

  1. Neese, F.
     The ORCA program system
     WIRES Comput. Molec. Sci. 2012 2(1), 73-78
     doi.org/10.1002/wcms.81
  2. Neese, F.
     Software update: the ORCA program system, version 4.0
     WIRES Comput. Molec. Sci. 2018 8(1), 1-6
     doi.org/10.1002/wcms.1327
  3. Neese, F.; Wennmohs, F.; Becker, U.; Riplinger, C.
     The ORCA quantum chemistry program package
     J. Chem. Phys. 2020 152(22), 224108
     doi.org/10.1063/5.0004608
  4. Neese, F.
     Software update: The ORCA program system—Version 5.0
     WIRES Comput. Molec. Sci. 2022 12(1), e1606
     doi.org/10.1002/wcms.1606

List of optional additional citations

  1. Neese, F.
     Approximate second-order SCF convergence for spin unrestricted wavefunctions
     Chem. Phys. Lett. 2000 325(1-3), 93-98
     doi.org/10.1016/s0009-2614(00)00662-x

Timings for individual modules:

Sum of individual times          ...        3.086 sec (=   0.051 min)
Startup calculation              ...        0.251 sec (=   0.004 min)   8.1 %
SCF iterations                   ...        2.806 sec (=   0.047 min)  90.9 %
Property calculations            ...        0.029 sec (=   0.000 min)   0.9 %
                             ****ORCA TERMINATED NORMALLY****
TOTAL RUN TIME: 0 days 0 hours 0 minutes 3 seconds 124 msec
