15
Energy -30.7902634104
6 -4.57637299484865955890 0.54802807770661365883 -2.72929672251058796917
6 -4.91372748234011957891 1.01862346177609919273 -1.33864977600194223761
1 -3.26503789870101446269 2.86420426833200680861 -2.00437940850472307019
8 -1.46865030746982783150 1.53623540719923235010 -4.01107742712093795490
8 -4.21956469607650319631 1.28920929524374994202 -3.63434549096969927717
6 -3.50077619604484313598 1.18878637339971615638 -0.91967956576214338060
1 -5.46259864834126585009 1.95874270917391424263 -1.35697419696157428604
1 -5.43569845242763705073 0.25482546554074986256 -0.77149246694666495650
6 -1.97215962376424824853 0.60973370575093466250 -4.45560909192246690225
1 -4.19418651270779108131 -1.05564051717493234683 -3.70248960523704795378
7 -2.81152187191680269507 2.31422403043528390754 -1.28473614822941906155
8 -2.38068357037596989301 -0.36309207076472233000 -4.90391528947548405171
8 -4.54936279849464408898 -0.79592523752872612608 -2.83728033476115903966
1 -2.95398715474081230425 0.37225891346498962697 -0.48338431944959298070
1 -1.81713079174983960229 2.21479911744508362048 -1.43521615614655595472
15
Energy -30.7848451554
6 -5.06690370355333374874 0.45224968907078028080 -2.61850159518202207920
6 -5.22046705107675812485 1.16071750662324180148 -1.29680423210212758534
1 -3.33402718451519985976 2.66840768550284401783 -2.13134979268509860972
8 -0.67308534349915793982 1.07353695249849945270 -3.44693380229358936617
8 -4.65053648041143485869 0.96480330876514908134 -3.64064982829715999557
6 -3.78084679334388340521 1.11798706606266384789 -0.93853658602112333131
1 -5.58734791320170387507 2.17720673642792483804 -1.43067887101094837199
1 -5.84411251364233574890 0.59454285362824088601 -0.61193941570827448118
6 -0.46776904300238064671 0.99655579498011548356 -4.56782314328767924394
1 -5.06708701992222732002 -1.31387380294690614413 -3.34866495478050385515
7 -2.91614027219719496031 2.05234384518695112121 -1.44572395170806000664
8 -0.25137644348672794070 0.92180283023387010743 -5.68489171915719992967
8 -5.29823063319172682384 -0.87797051812113025004 -2.51525063358722000828
1 -3.36220264892143028135 0.24619517866322060407 -0.46908408137074020239
1 -2.00132595603446228338 1.72050787342453448403 -1.72169339280825273164
15
Energy -30.7902131846
6 -4.47850346629118156727 0.36336989373405725878 -2.75647630482657168827
6 -4.98222424351286097277 0.86292127790640282825 -1.42913735650894335727
1 -3.63921520425989442060 2.91211207230587287853 -2.17626800667613018447
8 -1.44274894160716504743 1.71751878165422433575 -3.86834667857844261007
8 -4.18710966508555593180 1.08984887188107659739 -3.69620286155085953084
6 -3.65510253425447784181 1.32138522688071935463 -0.94742462176215669345
1 -5.68866167528365807016 1.68328024473376447467 -1.54834602124101294862
1 -5.39447653232824464453 0.05757929516748053200 -0.82986550519294954853
6 -1.76433510775664292858 0.70711328915005733364 -4.29860521215304025588
1 -3.78179502531149047684 -1.22051003054391271618 -3.57989564910635493789
7 -3.14816818036058387875 2.51467472237573241856 -1.38436972518162404455
8 -1.98928670553544550970 -0.33604100724491314800 -4.71719686156305861857
8 -4.22184205813562840603 -0.96093217123379881528 -2.75470432445646951081
1 -3.00386046373960802214 0.65292968813118368310 -0.41279385105146754187
1 -2.14412919653751865567 2.58976284510205756462 -1.46889302015090938980
15
Energy -30.7893648108
6 -4.26678098098822644602 0.02644121819641733276 -2.73588514820008521511
6 -4.83580262327002419198 1.34139012075924068945 -2.27497901471976504695
1 -2.44706306560572750541 2.14852477495615712400 -1.70487058304922967089
8 -1.61807645027187541054 2.17601921239564344290 -3.63510708046499031454
8 -3.15508102057008166241 -0.13051446890645135301 -3.22138691451750869277
6 -4.14145450056523589666 1.33311810756743209794 -0.96620874653395827369
1 -4.51472689139041616357 2.16322539767309951486 -2.91005551867816025791
1 -5.91693446066619088697 1.29373045363877037239 -2.18622968417327800950
6 -1.63970374192174639383 1.39158081773509190171 -4.47617909306648265044
1 -4.61248216801998101033 -1.84859969636759302603 -2.63316207307644400970
7 -2.89367704898731092911 1.87023207932225954409 -0.84003488281548210903
8 -1.61670526909931444592 0.98050366597384974732 -5.54296980577772391285
8 -5.06902716421208410225 -1.01941680696269565409 -2.43104017955158901998
1 -4.53423749904459505444 0.76376860349893727076 -0.14368773481873775566
1 -2.25970611538715937527 1.46500952051983390767 -0.16672954055654265471
