15
Energy -30.7866470604
6 -4.06829968626991433922 0.30885975790856468048 -2.60611573395973694645
6 -4.78560310883921857794 0.80340129700244478084 -1.37226949361735872657
1 -2.35753709548906975613 2.84931718662437116762 -0.24506866582475872463
8 -2.07343166082601992883 -0.24414192494767184005 -5.06842935750918233140
8 -4.35327751060955758788 0.60970226275470928989 -3.74818657230518903489
6 -4.03179322803190842706 2.05463129577553127447 -1.10490566467850803711
1 -5.83054013386612535186 1.00641971361755921954 -1.59596772873075365418
1 -4.68284899958887379512 0.08513253256439845540 -0.55967695081586876782
6 -2.79309692317863600408 0.37795866894948371151 -5.71474792947170850965
1 -2.45377855095309405087 -0.59570673776605731486 -3.08985379623875955346
7 -2.80250049647371124451 1.97910058227004270748 -0.48371603660190759522
8 -3.43351230148682518006 0.99208572410486417503 -6.43091646663976490572
8 -2.97802401809876338135 -0.41264188316074423835 -2.29154212241585275578
1 -4.18875584225095920488 2.90659373477138949227 -1.74353460208071031623
1 -2.68845944403729930627 1.23430078953119681806 0.18640512089016311736
15
Energy -30.7848742244
6 -4.21368629935125316166 -0.03385190834660372489 -2.45292495147032152403
6 -4.77540792035735695009 0.96763351494896376881 -1.47751521343993275082
1 -2.69458682296703777581 1.30206266320511598877 0.14565832589970784117
8 -2.74169007817853893627 1.98909458695525898086 -4.73485579951695623180
8 -4.35263772689687300499 -0.00696755305699421189 -3.65839706979911172269
6 -3.68763120557064238980 1.97821636220425012276 -1.49993637183135275492
1 -5.71223777347982419883 1.37789207525584744829 -1.84872783925234651647
1 -4.89807427532027261918 0.51657476574545890813 -0.49370944824907203596
6 -2.96872128045558802967 1.11249546619957340177 -5.43865110977094978750
1 -2.95971840396605401224 -1.47175284617855761660 -2.51374942177357718620
7 -2.56220928171095740922 1.77760744940494075372 -0.73352897156680862967
8 -3.12799542501565897012 0.27426174734707148284 -6.19970534126856520629
8 -3.39465276873866894647 -0.92308880131582582429 -1.84441625299381462000
1 -3.56309741946753932851 2.58868995220474396035 -2.37709996688465130532
1 -1.86911231852371662043 2.50614552542684121406 -0.74096656808212435497
15
Energy -30.7864943750
6 -4.24190692620281861736 0.31231009408100995905 -2.60094457686078817105
6 -4.77430878545218817521 0.91153226339034310044 -1.32125495710612095301
1 -2.54473162270029140686 0.97455662394431974427 0.11289602667532659674
8 -3.41443948734289914881 1.50262061100122190638 -6.20072963266747212430
8 -4.54490288428614075400 0.67610475493890742626 -3.71996723762114056555
6 -3.78872621837494749641 2.00494011807885286203 -1.12726821181916991854
1 -5.77970520286829181345 1.29887104459225710684 -1.47119878283628691129
1 -4.74109316310817252571 0.18494468915396089503 -0.51106445435783753872
6 -2.91834909183413548917 0.65296721210229702326 -5.62331777013104083807
1 -2.83219380862234348939 -0.83668737501634038445 -3.19301185624555738940
7 -2.55985366628636556996 1.71586930306064089358 -0.57063389623598015366
8 -2.33782641438153770963 -0.19961565035247924582 -5.11489415390444879250
8 -3.27740409352192729742 -0.59475003037232032632 -2.36342403267497846997
1 -3.81467988548722525266 2.85739982768035183369 -1.78432058259913217668
1 -1.95133774953073158009 2.49394951371706685705 -0.37939188161525339016
15
Energy -30.7866478927
6 -4.26865979017326413469 0.75296127554124303582 -2.69264745370037461569
6 -4.70864230262922145442 1.50773934081520355477 -1.46035991795101494084
1 -2.95504645684730959942 0.54355951975806693355 0.27260229519051043523
8 -3.13993513168177562633 1.00584658403615478939 -6.47420777164388194791
8 -4.18920067021807174257 1.22313270711877697394 -3.80983865494035667254
6 -3.40922031463578800725 2.06242763915255533647 -1.00313579073057246305
1 -5.40773195780013526957 2.29694586442246428959 -1.72803302547012460622
1 -5.13856801209212399328 0.82357147979976830232 -0.72965031324338069929
6 -3.00576652346099937319 0.12650354421545867423 -5.76105743210205556437
1 -3.43045594832545974739 -0.89970004863029207076 -3.16757107297522866318
7 -2.53422047845663422905 1.24634307988936909872 -0.31583608921904376965
8 -2.81717408116636480742 -0.80509436705201087303 -5.11379469056966673435
8 -3.84437189940325874105 -0.48673966902521303979 -2.39058866979323214608
1 -2.96754497203123079885 2.87798136299250062464 -1.54908872784916096244
1 -1.70492046107835260038 1.67953468696607544075 0.05468131499772329457
15
Energy -30.7866486455
6 -4.22135823281416389108 0.61326920705980036974 -2.67445876227214895948
6 -4.79333021730273589611 1.34874342453935835984 -1.48550229804468636452
1 -2.89951867287002418294 0.82447389839963247660 0.28791620968943082426
8 -3.17775503763647426680 0.81846307420447361736 -6.48461379915908864291
8 -4.22567912332693129684 1.02222585445988634056 -3.81824177005541320895
6 -3.61724220001971596972 2.15616185600946463907 -1.07290894506902767525
1 -5.62322597941291135726 1.98090984699861238916 -1.79361205974667559104
1 -5.09392440682573877098 0.64318021338157005395 -0.71177850173168677461
6 -2.87158234686077751263 0.03349516156254923882 -5.71650856389638661881
1 -3.09700945117459580658 -0.88643508165296835966 -3.05756153570645761164
7 -2.61089385062928824865 1.55446145169569449607 -0.34538156379404577612
8 -2.50696296493988901588 -0.79966371250283474481 -5.01279077102259584819
8 -3.58048018040490223513 -0.50895727047408434451 -2.30299897631468430959
1 -3.32860749752430207238 3.00317809970100357830 -1.67085911359844607738
1 -1.87388883825751406675 2.15150697661795531346 -0.00922554927793618924
15
Energy -30.7866935765
6 -4.09974964589145063343 0.17292082547327214392 -2.44443045895113986177
6 -4.33600015824964835076 0.52825516133700700649 -0.99563982988560728593
1 -1.99440543410819648429 1.67778662135476497319 -0.58726288343933530367
8 -1.27579587702624741574 0.07746657697572414958 -5.14216089543235543857
8 -3.01837778258509503715 -0.13086023563914256362 -2.91094123585739916749
6 -3.96696503899455432673 1.96646875239635754440 -1.01408015633010606393
1 -5.38084069030779588161 0.38433114613677132887 -0.73104703285180661076
1 -3.67661800983476094729 -0.05187232462233455632 -0.35082370082127539712
6 -2.40006460616348693549 0.15885056442124265152 -5.31733894709954135749
1 -4.97467967971314983799 0.26679428389199089100 -4.14261102919540835643
7 -2.63557160724193551005 2.31708677854817102215 -1.02870748901184505542
8 -3.51107524505198220766 0.25412500885371175352 -5.59803485171977754931
8 -5.19491941154517711254 0.36038716399082421082 -3.20000805888929473753
1 -4.64914207821969327483 2.67954015634309961058 -1.44443284691127882269
1 -2.40725373506681705749 3.29373252053865694933 -0.96100658360368396149
