
                                 *****************
                                 * O   R   C   A *
                                 *****************

                                            #,                                       
                                            ###                                      
                                            ####                                     
                                            #####                                    
                                            ######                                   
                                           ########,                                 
                                     ,,################,,,,,                         
                               ,,#################################,,                 
                          ,,##########################################,,             
                       ,#########################################, ''#####,          
                    ,#############################################,,   '####,        
                  ,##################################################,,,,####,       
                ,###########''''           ''''###############################       
              ,#####''   ,,,,##########,,,,          '''####'''          '####       
            ,##' ,,,,###########################,,,                        '##       
           ' ,,###''''                  '''############,,,                           
         ,,##''                                '''############,,,,        ,,,,,,###''
      ,#''                                            '''#######################'''  
     '                                                          ''''####''''         
             ,#######,   #######,   ,#######,      ##                                
            ,#'     '#,  ##    ##  ,#'     '#,    #''#        ,####,    ,#,          
            ##       ##  ##   ,#'  ##            #'  '#       #'       ,# #          
            ##       ##  #######   ##           ,######,      #####,      #          
            '#,     ,#'  ##    ##  '#,     ,#' ,#      #,     #,   #      #          
             '#######'   ##     ##  '#######'  #'      '#     '####' #    #          



                #########################################################
                #                        -***-                          #
                #          Department of theory and spectroscopy        #
                #                                                       #
                #                      Frank Neese                      #
                #                                                       #
                #     Directorship, Architecture, Infrastructure        #
                #                    SHARK, DRIVERS                     #
                #        Core code/Algorithms in most modules           #
                #                                                       #
                #        Max Planck Institute fuer Kohlenforschung      #
                #                Kaiser Wilhelm Platz 1                 #
                #                 D-45470 Muelheim/Ruhr                 #
                #                      Germany                          #
                #                                                       #
                #                  All rights reserved                  #
                #                        -***-                          #
                #########################################################


                         Program Version 6.1.0  -  RELEASE   -
                                (GIT: $679e74b$)
                          ($2025-06-10 18:02:51 +0200$)


 With contributions from (in alphabetic order):
[Max-Planck-Institut fuer Kohlenforschung]                               
  Daniel Aravena         : Magnetic Suceptibility                        
  Michael Atanasov       : Ab Initio Ligand Field Theory (pilot matlab implementation)
  Alexander A. Auer      : GIAO ZORA, VPT2 properties, NMR spectrum      
  Ute Becker             : All parallelization in ORCA, NUMFREQ, NUMCALC 
  Giovanni Bistoni       : ED, misc. LED, open-shell LED, HFLD           
  Dmytro Bykov           : pre 5.0 version of the SCF Hessian            
  Marcos Casanova-Páez   : Triplet and SCS-CIS(D). UHF-(DLPNO)-IP/EA/STEOM-CCSD. UHF-CVS-IP/STEOM-CCSD   
  Vijay G. Chilkuri      : MRCI spin determinant printing, contributions to CSF-ICE 
  Pauline Colinet        : FMM embedding                                 
  Dipayan Datta          : RHF DLPNO-CCSD density                        
  Achintya Kumar Dutta   : EOM-CC, STEOM-CC                              
  Nicolas Foglia         : Exact transition moments, OPA infrastructure, MCD improvements    
  Dmitry Ganyushin       : Spin-Orbit,Spin-Spin,Magnetic field MRCI      
  Miquel Garcia-Rates    : C-PCM and meta-GGA Hessian, CCSD/C-PCM, Gaussian charge scheme 
  Tiago L. C. Gouveia    : GS-ROHF, GS-ROCIS                             
  Yang Guo               : DLPNO-NEVPT2, F12-NEVPT2, CIM, IAO-localization        
  Andreas Hansen         : Spin unrestricted coupled pair/coupled cluster methods 
  Ingolf Harden          : AUTO-CI MPn and infrastructure                
  Benjamin Helmich-Paris : MC-RPA, TRAH-(SCF,CASSCF), AVAS, COSX integrals, SCF dyn. polar., MC-PDFT, srDFT 
  Lee Huntington         : MR-EOM, pCC                                   
  Robert Izsak           : Overlap fitted RIJCOSX, COSX-SCS-MP3, EOM     
  Riya Kayal             : Wick's Theorem for AUTO-CI, AUTO-CI UHF-CCSDT 
  Emily Kempfer          : AUTO-CI RHF CISDT and CCSDT, approximate NEVPT4
  Christian Kollmar      : KDIIS, OOCD, Brueckner-CCSD(T), CCSD density, CASPT2, CASPT2-K, improved NEVPT2 
  Axel Koslowski         : Symmetry handling                             
  Simone Kossmann        : meta-GGA functionals, TD-DFT gradient, OOMP2, (MP2 Hessian; deprecated post 5.0) 
  Lucas Lang             : DCDCAS, Hyperfine gauge corrections, ICE-SOC+SSC
  Marvin Lechner         : AUTO-CI (C++ implementation), FIC-MRCC        
  Spencer Leger          : CASSCF response                               
  Dagmar Lenk            : GEPOL surface, SMD, ORCA-2-JSON               
  Dimitrios Liakos       : Extrapolation schemes; Compound Job, Property file
  Dimitrios Manganas     : Further ROCIS development; embedding schemes. LFT, Crystal Embedding 
  Dimitrios Pantazis     : SARC Basis sets                               
  Anastasios Papadopoulos: AUTO-CI, single reference methods and gradients 
  Taras Petrenko         : pre 6.0 DFT Hessian and TD-DFT gradient,  ECA, NRVS 
  Petra Pikulova         : Analytic Raman intensities                    
  Peter Pinski           : DLPNO-MP2, DLPNO-MP2 Gradient                 
  Shashank Vittal Rao    : ES-AILFT, MagRelax                            
  Christoph Reimann      : Effective Core Potentials                     
  Marius Retegan         : Local ZFS, SOC                                
  Christoph Riplinger    : Optimizer, TS searches, QM/MM, DLPNO-CCSD(T), (RO)-DLPNO pert. Triples 
  Michael Roemelt        : Original ROCIS implementation, recursive CI coupling coefficients
  Masaaki Saitow         : Open-shell DLPNO-CCSD energy and density      
  Barbara Sandhoefer     : DKH picture change effects                    
  Yorick L. A. Schmerwitz: GMF and freeze-and-release deltaSCF, NEB S-IDPP initial path                    
  Kantharuban Sivalingam : CASSCF convergence/infrastructure, NEVPT2, NEVPT3, NEVPT4(SD), FIC-MRCI and CEPA variants
  Bernardo de Souza      : ESD, SOC TD-DFT                               
  Georgi L. Stoychev     : AutoAux, RI-MP2 NMR, DLPNO-MP2 response, X2C  
  Van Anh Tran           : RI-MP2 g-tensors                              
  Willem Van den Heuvel  : Paramagnetic NMR                              
  Zikuan Wang            : NOTCH, Electric field optimization            
  Frank Wennmohs         : Technical directorship and infrastructure     
  Hang Xu                : AUTO-CI-Response properties                   
                                                                         
[FACCTs GmbH]                                                            
  Markus Bursch, Nicolas Foglia, Miquel Garcia-Rates, Ingolf Harden, Hagen Neugebauer, Anastasios Papadopoulos, 
  Christoph Riplinger, Bernardo de Souza, Georgi L. Stoychev                                                    
                                                                 
  APM, various basis sets, CI-OPT, improved COSX, DLPNO-Multilevel,           
  DOCKER, DRACO, updates on ESD, Fragmentator, GOAT, IRC, LR-CPCM, L-BFGS, MBIS, meta-GGA TD-DFT gradient, ML-optimized integration grids, 
  MM, NACMEs, nearIR, NEB, NEB-TS, NL-DFT gradient (VV10), 2- and 3-layer-ONIOM, interface openCOSMO-RS, QMMM,   
  Crystal-QMMM, RESP, rigid body optimization, SF, symmetry and pop. for TD-DFT, various functionals, SOLVATOR                                   
                                                                         
[Other institutions]                                                     
  V. Asgeirsson          : NEB                                           
  Christoph Bannwarth    : sTDA-DFT, sTD-DFT, PBEh-3c, B97-3c, D3        
  Giovanni Bistoni       : ETS/NOCV, ADLD/ADEX, COVALED                  
  Martin Brehm           : Molecular dynamics                            
  Ronald Cardenas        : ETS/NOCV                                      
  Martina Colucci        : COVALED                                       
  Sebastian Ehlert       : rSCAN, r2SCAN, r2SCAN-3c, D4, dhf basis sets  
  Marvin Friede          : D4 for Fr, Ra, Ac-Lr                          
  Lars Goerigk           : TD-DFT with DH, B97 family of functionals     
  Stefan Grimme          : VdW corrections, initial TS optimization, DFT functionals, gCP, sTDA/sTD-DF 
  Waldemar Hujo          : DFT-NL                                        
  H. Jonsson             : NEB                                           
  Holger Kruse           : gCP                                           
  Marcel Mueller         : wB97X-3c, vDZP basis set                      
  Hagen Neugebauer       : wr2SCAN, Native XTB                           
  Gianluca Regni         : ADLD/ADEX                                     
  Tobias Risthaus        : pre 6.0 range-separated hybrid DFT and stability analysis
  Lukas Wittmann         : regularized MP2, r2SCAN double-hybrids, wr2SCAN        
                                                                         
We gratefully acknowledge several colleagues who have allowed us to      
interface, adapt or use parts of their codes:                            
  Ed Valeev, F. Pavosevic, A. Kumar             : LibInt (2-el integral package), F12 methods 
  Garnet Chan, S. Sharma, J. Yang, R. Olivares  : DMRG                   
  Ulf Ekstrom                                   : XCFun DFT Library      
  Mihaly Kallay                                 : mrcc  (arbitrary order and MRCC methods)
  Frank Weinhold                                : gennbo (NPA and NBO analysis)           
  Simon Mueller                                 : openCOSMO-RS                            
  Christopher J. Cramer and Donald G. Truhlar   : smd solvation model                     
  S Lehtola, MJT Oliveira, MAL Marques          : LibXC Library                           
  Liviu Ungur et al                             : ANISO software                          


 Your calculation uses the libint2 library for the computation of 2-el integrals
 For citations please refer to: http://libint.valeyev.net

 Your ORCA version has been built with support for libXC version: 7.0.0
 For citations please refer to: https://libxc.gitlab.io

 This ORCA versions uses:
   CBLAS   interface :  Fast vector & matrix operations
   LAPACKE interface :  Fast linear algebra routines
   SCALAPACK package :  Parallel linear algebra routines
   Shared memory     :  Shared parallel matrices
   BLAS/LAPACK       :  OpenBLAS 0.3.29  USE64BITINT DYNAMIC_ARCH NO_AFFINITY Haswell SINGLE_THREADED
        Core in use  :  Haswell
   Copyright (c) 2011-2014, The OpenBLAS Project


  ***********************************
  * Starting time: Wed Aug  6 20:08:02 2025
  * Host name:     debian
  * Process ID:    2010
  * Working dir.:  /home/uni/mm-project/d
  ***********************************



***************************************
The coordinates will be read from file: d-input-coordinates.xyz
***************************************


Your calculation utilizes the semiempirical GFN2-xTB method
Please cite in your paper:
Bannwarth, C.; Ehlert S.; Grimme, S. J. Chem. Theory Comput. 2019, 15, 1652.
   

================================================================================

================================================================================
                                        WARNINGS
                       Please study these warnings very carefully!
================================================================================


================================================================================
 STARTING AUTOMATIC FRAGMENTATION: 
================================================================================

WARNING: Geometry Optimization
  ===> : Switching off AutoStart
         For restart on a previous wavefunction, please use MOREAD

WARNING: Found dipole moment calculation with XTB calculation
  ===> : Switching off dipole moment calculation


================================================================================
                                       INPUT FILE
================================================================================
NAME = d.inp
|  1> ! xtb goat
|  2> 
|  3> %pal
|  4>   nprocs=9
|  5> end
|  6> 
|  7> * xyzfile 0 1 d-input-coordinates.xyz
|  8> 
|  9>                          ****END OF INPUT****
================================================================================

                       *****************************
                       * Geometry Optimization Run *
                       *****************************


                       *********************************
                       *              GOAT             *
                       * Global Optimization Algorithm *
                       *********************************

Geometry optimization settings:
Update method            Update   .... BFGS
Choice of coordinates    CoordSys .... (2022) Redundant Internals
Initial Hessian          InHess   .... Almloef's Model
Max. no of cycles        MaxIter  .... 50

Convergence Tolerances:
Energy Change            TolE     ....  5.0000e-06 Eh
Max. Gradient            TolMAXG  ....  3.0000e-04 Eh/bohr
RMS Gradient             TolRMSG  ....  1.0000e-04 Eh/bohr
Max. Displacement        TolMAXD  ....  4.0000e-03 bohr
RMS Displacement         TolRMSD  ....  2.0000e-03 bohr
Strict Convergence                .... True

------------------------------------------------------------------------------
                        ORCA OPTIMIZATION COORDINATE SETUP
------------------------------------------------------------------------------

The optimization will be done in redundant internal coordinates (2022)
Making redundant internal coordinates   ...  (2022 redundants) done
Evaluating the initial hessian          ...  (Almloef) done
Evaluating the coordinates              ...  done
Calculating the B-matrix                .... done
Calculating the G-matrix                .... done
The number of degrees of freedom        ....   62

    -----------------------------------------------------------------
                    Redundant Internal Coordinates


    -----------------------------------------------------------------
         Definition                    Initial Value    Approx d2E/dq
    -----------------------------------------------------------------
      1. B(C   1,C   0)                  1.5098         0.402359   
      2. B(O   3,H   2)                  2.0231         0.010467   
      3. B(O   4,C   0)                  1.2249         1.026162   
      4. B(C   5,C   1)                  1.5238         0.382119   
      5. B(H   6,C   1)                  1.0970         0.350912   
      6. B(H   7,C   1)                  1.0969         0.351096   
      7. B(C   8,C   5)                  1.5651         0.328349   
      8. B(C   8,O   3)                  1.2690         0.872664   
      9. B(N  10,C   5)                  1.5148         0.353750   
     10. B(N  10,H   9)                  1.6614         0.039527   
     11. B(N  10,H   2)                  1.0448         0.380770   
     12. B(O  11,C   8)                  1.2588         0.906080   
     13. B(O  12,H   9)                  0.9997         0.449438   
     14. B(O  12,C   0)                  1.3554         0.635371   
     15. B(H  13,C   5)                  1.0952         0.353295   
     16. B(H  14,N  10)                  1.0296         0.402672   
     17. A(C   1,C   0,O  12)          114.1468         0.401047   
     18. A(O   4,C   0,O  12)          121.7510         0.471526   
     19. A(C   1,C   0,O   4)          123.9173         0.436809   
     20. A(C   0,C   1,H   7)          107.7965         0.326938   
     21. A(C   5,C   1,H   7)          111.6616         0.324175   
     22. A(C   0,C   1,C   5)          112.8962         0.369431   
     23. A(H   6,C   1,H   7)          107.3822         0.288515   
     24. A(C   5,C   1,H   6)          109.5100         0.324147   
     25. A(C   0,C   1,H   6)          107.3559         0.326910   
     26. A(C   8,C   5,N  10)          108.9602         0.350021   
     27. A(C   1,C   5,N  10)          110.4713         0.359136   
     28. A(N  10,C   5,H  13)          108.5824         0.318527   
     29. A(C   1,C   5,H  13)          111.6229         0.324507   
     30. A(C   1,C   5,C   8)          106.2372         0.356822   
     31. A(C   8,C   5,H  13)          110.9339         0.316561   
     32. A(C   5,C   8,O  11)          115.5263         0.411944   
     33. A(O   3,C   8,O  11)          130.7347         0.488596   
     34. A(O   3,C   8,C   5)          113.7227         0.409209   
     35. A(H   2,N  10,C   5)          101.4284         0.319730   
     36. A(C   5,N  10,H  14)          104.2190         0.322669   
     37. A(H   2,N  10,H  14)           98.0724         0.293783   
     38. A(C   0,O  12,H   9)          109.0680         0.362506   
     39. D(H   6,C   1,C   0,O  12)    160.6376         0.012008   
     40. D(H   7,C   1,C   0,O   4)     91.1686         0.012008   
     41. D(C   5,C   1,C   0,O  12)     39.8521         0.012008   
     42. D(C   5,C   1,C   0,O   4)   -145.0241         0.012008   
     43. D(H   6,C   1,C   0,O   4)    -24.2386         0.012008   
     44. D(C   8,C   5,C   1,H   6)     59.6828         0.011631   
     45. D(C   8,C   5,C   1,C   0)    179.2331         0.011631   
     46. D(N  10,C   5,C   1,H   6)    177.7134         0.011631   
     47. D(N  10,C   5,C   1,H   7)     58.9136         0.011631   
     48. D(C   8,C   5,C   1,H   7)    -59.1169         0.011631   
     49. D(N  10,C   5,C   1,C   0)    -62.7364         0.011631   
     50. D(O   3,C   8,C   5,H  13)   -139.7819         0.010000   
     51. D(O   3,C   8,C   5,N  10)    -20.2978         0.010000   
     52. D(O  11,C   8,C   5,C   1)    -82.5762         0.010000   
     53. D(O   3,C   8,C   5,C   1)     98.7290         0.010000   
     54. D(O  11,C   8,C   5,N  10)    158.3970         0.010000   
     55. D(H  14,N  10,C   5,H  13)     54.6969         0.011523   
     56. D(H  14,N  10,C   5,C   8)    -66.2381         0.011523   
     57. D(H  14,N  10,C   5,C   1)    177.4129         0.011523   
     58. D(H   2,N  10,C   5,H  13)    156.1763         0.011523   
     59. D(H   2,N  10,C   5,C   8)     35.2413         0.011523   
     60. D(H   2,N  10,C   5,C   1)    -81.1077         0.011523   
     61. D(H   9,O  12,C   0,O   4)    179.8382         0.029727   
     62. D(H   9,O  12,C   0,C   1)     -4.9202         0.029727   
    -----------------------------------------------------------------

Number of atoms                         .... 15
Number of degrees of freedom            .... 62


         *************************************************************
         *                GEOMETRY OPTIMIZATION CYCLE   1            *
         *************************************************************
---------------------------------
CARTESIAN COORDINATES (ANGSTROEM)
---------------------------------
  C    -5.213977   -0.163178   -2.827819
  C    -3.988311    0.590436   -3.285301
  H    -3.453907    2.618374   -1.462969
  O    -1.797030    2.826658   -2.605053
  O    -5.826801   -0.960461   -3.527296
  C    -2.973813    0.805971   -2.168860
  H    -3.527256    0.006715   -4.091642
  H    -4.321749    1.541384   -3.718534
  C    -1.771897    1.574873   -2.812139
  H    -5.013722    0.844694   -1.195043
  N    -3.570694    1.658223   -1.067884
  O    -0.933794    0.859636   -3.420945
  O    -5.654957    0.190950   -1.596022
  H    -2.643501   -0.143741   -1.734821
  H    -2.830050    1.704479   -0.354198

----------------------------
CARTESIAN COORDINATES (A.U.)
----------------------------
  NO LB    ZA    FRAG    MASS        X           Y           Z
   0 C   6.0000    1    12.011   -9.852989   -0.308362   -5.343803
   1 C   6.0000    1    12.011   -7.536816    1.115762   -6.208319
   2 H   1.0000    1     1.008   -6.526938    4.948010   -2.764611
   3 O   8.0000    1    15.999   -3.395895    5.341609   -4.922837
   4 O   8.0000    1    15.999  -11.011058   -1.815008   -6.665623
   5 C   6.0000    1    12.011   -5.619692    1.523064   -4.098551
   6 H   1.0000    1     1.008   -6.665548    0.012690   -7.732083
   7 H   1.0000    1     1.008   -8.166922    2.912794   -7.027011
   8 C   6.0000    1    12.011   -3.348400    2.976079   -5.314173
   9 H   1.0000    1     1.008   -9.474561    1.596240   -2.258304
  10 N   7.0000    1    14.007   -6.747634    3.133587   -2.018008
  11 O   8.0000    1    15.999   -1.764615    1.624477   -6.464649
  12 O   8.0000    1    15.999  -10.686320    0.360843   -3.016044
  13 H   1.0000    1     1.008   -4.995493   -0.271631   -3.278337
  14 H   1.0000    1     1.008   -5.348019    3.220999   -0.669337

      -----------------------------------------------------------      
     |                   =====================                   |     
     |                           x T B                           |     
     |                   =====================                   |     
     |                         S. Grimme                         |     
     |          Mulliken Center for Theoretical Chemistry        |     
     |                    University of Bonn                     |     
      -----------------------------------------------------------      

   * xtb version 6.7.1 (edcfbbe) compiled by 'albert@albert-system' on 2024-07-22

   xtb is free software: you can redistribute it and/or modify it under
   the terms of the GNU Lesser General Public License as published by
   the Free Software Foundation, either version 3 of the License, or
   (at your option) any later version.
   
   xtb is distributed in the hope that it will be useful,
   but WITHOUT ANY WARRANTY; without even the implied warranty of
   MERCHANTABILITY or FITNESS FOR A PARTICULAR PURPOSE.  See the
   GNU Lesser General Public License for more details.
   
   Cite this work as:
   * C. Bannwarth, E. Caldeweyher, S. Ehlert, A. Hansen, P. Pracht,
     J. Seibert, S. Spicher, S. Grimme, WIREs Comput. Mol. Sci., 2020, 11,
     e01493. DOI: 10.1002/wcms.1493
   
   for GFN2-xTB:
   * C. Bannwarth, S. Ehlert and S. Grimme., J. Chem. Theory Comput., 2019,
     15, 1652-1671. DOI: 10.1021/acs.jctc.8b01176
   for GFN1-xTB:
   * S. Grimme, C. Bannwarth, P. Shushkov, J. Chem. Theory Comput., 2017,
     13, 1989-2009. DOI: 10.1021/acs.jctc.7b00118
   for GFN0-xTB:
   * P. Pracht, E. Caldeweyher, S. Ehlert, S. Grimme, ChemRxiv, 2019, preprint.
     DOI: 10.26434/chemrxiv.8326202.v1
   for GFN-FF:
   * S. Spicher and S. Grimme, Angew. Chem. Int. Ed., 2020, 59, 15665-15673.
     DOI: 10.1002/anie.202004239
   
   for ALPB and GBSA implicit solvation:
   * S. Ehlert, M. Stahn, S. Spicher, S. Grimme, J. Chem. Theory Comput.,
     2021, 17, 4250-4261. DOI: 10.1021/acs.jctc.1c00471
   
   for ddCOSMO and CPCM-X implicit solvation:
   * M. Stahn, S. Ehlert, S. Grimme, J. Phys. Chem. A,
     2023, XX, XXXX-XXXX. DOI: 10.1021/acs.jpca.3c04382
   
   for DFT-D4:
   * E. Caldeweyher, C. Bannwarth and S. Grimme, J. Chem. Phys., 2017,
     147, 034112. DOI: 10.1063/1.4993215
   * E. Caldeweyher, S. Ehlert, A. Hansen, H. Neugebauer, S. Spicher,
     C. Bannwarth and S. Grimme, J. Chem. Phys., 2019, 150, 154122.
     DOI: 10.1063/1.5090222
   * E. Caldeweyher, J.-M. Mewes, S. Ehlert and S. Grimme, Phys. Chem. Chem. Phys.
     2020, 22, 8499-8512. DOI: 10.1039/D0CP00502A
   
   for sTDA-xTB:
   * S. Grimme and C. Bannwarth, J. Chem. Phys., 2016, 145, 054103.
     DOI: 10.1063/1.4959605
   
   in the mass-spec context:
   * V. Asgeirsson, C. Bauer and S. Grimme, Chem. Sci., 2017, 8, 4879.
     DOI: 10.1039/c7sc00601b
   * J. Koopman and S. Grimme, ACS Omega 2019, 4, 12, 15120-15133.
     DOI: 10.1021/acsomega.9b02011
   
   for metadynamics refer to:
   * S. Grimme, J. Chem. Theory Comput., 2019, 155, 2847-2862
     DOI: 10.1021/acs.jctc.9b00143
   
   for SPH calculations refer to:
   * S. Spicher and S. Grimme, J. Chem. Theory Comput., 2021, 17, 1701-1714
     DOI: 10.1021/acs.jctc.0c01306
   
   for ONIOM refer to:
   * C. Plett, A. Katbashev, S. Ehlert, S. Grimme, M. Bursch,
     Phys. Chem. Chem. Phys., 2023, 25, 17860-17868. DOI: 10.1039/D3CP02178E
   
   for DIPRO refer to:
   * J. Kohn, N. Gildemeister, S. Grimme, D. Fazzi, A. Hansen,
     J. Chem. Phys., 2023, just accepted.
   
   for PTB refer to:
   * S. Grimme, M. Mueller, A. Hansen, J. Chem. Phys., 2023, 158, 124111.
     DOI: 10.1063/5.0137838
   
   with help from (in alphabetical order)
   P. Atkinson, C. Bannwarth, F. Bohle, G. Brandenburg, E. Caldeweyher
   M. Checinski, S. Dohm, S. Ehlert, S. Ehrlich, I. Gerasimov, C. Hölzer
   A. Katbashev, J. Kohn, J. Koopman, C. Lavigne, S. Lehtola, F. März, M. Müller,
   F. Musil, H. Neugebauer, J. Pisarek, C. Plett, P. Pracht, F. Pultar,
   J. Seibert, P. Shushkov, S. Spicher, M. Stahn, M. Steiner, T. Strunk,
   J. Stückrath, T. Rose, and J. Unsleber
   
 * started run on 2025/08/06 at 20:08:03.833     
   ID    Z sym.   atoms
    1    6 C      1, 2, 6, 9
    2    1 H      3, 7, 8, 10, 14, 15
    3    8 O      4, 5, 12, 13
    4    7 N      11

           -------------------------------------------------
          |                Calculation Setup                |
           -------------------------------------------------

          program call               : /home/uni/orca_6_1_0/otool_xtb d_XTB.xyz --grad -c 0 -u 0 -P 9 --namespace d --input d_XTB.input.tmp --acc 0.200000
          calculation namespace      : d
          coordinate file            : d_XTB.xyz
          omp threads                :                     9


           -------------------------------------------------
          |                 G F N 2 - x T B                 |
           -------------------------------------------------

        Reference                      10.1021/acs.jctc.8b01176
      * Hamiltonian:
        H0-scaling (s, p, d)           1.850000    2.230000    2.230000
        zeta-weighting                 0.500000
      * Dispersion:
        s8                             2.700000
        a1                             0.520000
        a2                             5.000000
        s9                             5.000000
      * Repulsion:
        kExp                           1.500000    1.000000
        rExp                           1.000000
      * Coulomb:
        alpha                          2.000000
        third order                    shell-resolved
        anisotropic                    true
        a3                             3.000000
        a5                             4.000000
        cn-shift                       1.200000
        cn-exp                         4.000000
        max-rad                        5.000000


          ...................................................
          :                      SETUP                      :
          :.................................................:
          :  # basis functions                  42          :
          :  # atomic orbitals                  42          :
          :  # shells                           24          :
          :  # electrons                        51          :
          :  max. iterations                   250          :
          :  Hamiltonian                  GFN2-xTB          :
          :  restarted?                      false          :
          :  GBSA solvation                  false          :
          :  PC potential                    false          :
          :  electronic temp.          300.0000000     K    :
          :  accuracy                    0.2000000          :
          :  -> integral cutoff          0.3198970E+02      :
          :  -> integral neglect         0.2000000E-08      :
          :  -> SCF convergence          0.2000000E-06 Eh   :
          :  -> wf. convergence          0.2000000E-04 e    :
          :  Broyden damping             0.4000000          :
          :  net charge                          0          :
          :  unpaired electrons                  0          :
          ...................................................

 iter      E             dE          RMSdq      gap      omega  full diag
   1    -30.7550926 -0.307551E+02  0.542E+00    4.15       0.0  T
   2    -30.9141771 -0.159084E+00  0.293E+00    3.66       1.0  T
   3    -30.9474801 -0.333030E-01  0.201E+00    4.32       1.0  T
   4    -30.9480806 -0.600493E-03  0.144E+00    4.04       1.0  T
   5    -30.9630819 -0.150013E-01  0.576E-01    4.16       1.0  T
   6    -30.9680440 -0.496207E-02  0.166E-01    4.11       1.0  T
   7    -30.9682067 -0.162703E-03  0.705E-02    4.13       1.0  T
   8    -30.9682362 -0.295440E-04  0.396E-02    4.10       1.0  T
   9    -30.9682478 -0.116032E-04  0.134E-02    4.12       1.9  T
  10    -30.9682503 -0.252353E-05  0.362E-03    4.12       7.1  T
  11    -30.9682504 -0.241707E-07  0.187E-03    4.12      13.8  T
  12    -30.9682504 -0.239661E-07  0.535E-04    4.12      48.3  T
  13    -30.9682504 -0.714611E-09  0.347E-04    4.12      74.4  T
  14    -30.9682504 -0.122282E-08  0.815E-05    4.12     316.9  T
  15    -30.9682504 -0.574296E-10  0.309E-05    4.12     834.9  T

   *** convergence criteria satisfied after 15 iterations ***

         #    Occupation            Energy/Eh            Energy/eV
      -------------------------------------------------------------
         1        2.0000           -0.7721161             -21.0103
       ...           ...                  ...                  ...
        20        2.0000           -0.5215985             -14.1934
        21        2.0000           -0.5044214             -13.7260
        22        2.0000           -0.4952425             -13.4762
        23        2.0000           -0.4796069             -13.0508
        24        2.0000           -0.4682962             -12.7430
        25        2.0000           -0.4637995             -12.6206
        26        1.0000           -0.4357879             -11.8584 (HOMO)
        27                         -0.2845170              -7.7421 (LUMO)
        28                         -0.2646558              -7.2017
        29                         -0.0733630              -1.9963
        30                         -0.0128770              -0.3504
        31                          0.0190847               0.5193
       ...                                ...                  ...
        42                          0.5274245              14.3520
      -------------------------------------------------------------
                  HL-Gap            0.1512709 Eh            4.1163 eV
             Fermi-level           -0.4049710 Eh          -11.0198 eV

 SCC (total)                   0 d,  0 h,  0 min,  0.034 sec
 SCC setup                      ...        0 min,  0.001 sec (  4.075%)
 Dispersion                     ...        0 min,  0.000 sec (  1.331%)
 classical contributions        ...        0 min,  0.000 sec (  0.819%)
 integral evaluation            ...        0 min,  0.001 sec (  3.513%)
 iterations                     ...        0 min,  0.027 sec ( 79.127%)
 molecular gradient             ...        0 min,  0.003 sec (  9.344%)
 printout                       ...        0 min,  0.001 sec (  1.695%)

         :::::::::::::::::::::::::::::::::::::::::::::::::::::
         ::                     SUMMARY                     ::
         :::::::::::::::::::::::::::::::::::::::::::::::::::::
         :: total energy             -30.740310295844 Eh    ::
         :: gradient norm              0.174871056731 Eh/a0 ::
         :: HOMO-LUMO gap              4.116290883532 eV    ::
         ::.................................................::
         :: SCC energy               -30.968226066117 Eh    ::
         :: -> isotropic ES            0.106742035374 Eh    ::
         :: -> anisotropic ES         -0.000782764755 Eh    ::
         :: -> anisotropic XC          0.003578153336 Eh    ::
         :: -> dispersion             -0.010163775139 Eh    ::
         :: repulsion energy           0.227915770274 Eh    ::
         :: add. restraining           0.000000000000 Eh    ::
         :: total charge               0.000000000000 e     ::
         :::::::::::::::::::::::::::::::::::::::::::::::::::::


Property printout bound to 'properties.out'

           -------------------------------------------------
          | TOTAL ENERGY              -30.740310295844 Eh   |
          | GRADIENT NORM               0.174871056731 Eh/α |
          | HOMO-LUMO GAP               4.116290883532 eV   |
           -------------------------------------------------

------------------------------------------------------------------------
 * finished run on 2025/08/06 at 20:08:03.887     
------------------------------------------------------------------------
 total:
 * wall-time:     0 d,  0 h,  0 min,  0.054 sec
 *  cpu-time:     0 d,  0 h,  0 min,  0.062 sec
 * ratio c/w:     1.144 speedup
 SCF:
 * wall-time:     0 d,  0 h,  0 min,  0.035 sec
 *  cpu-time:     0 d,  0 h,  0 min,  0.047 sec
 * ratio c/w:     1.364 speedup


-------------------------   --------------------
FINAL SINGLE POINT ENERGY       -30.740310295840
-------------------------   --------------------


-------------
DIPOLE MOMENT
-------------
                                X             Y             Z
Total Dipole Moment    :     -0.13800       0.49400       1.22600
                        -----------------------------------------
Magnitude (a.u.)       :      1.32897
Magnitude (Debye)      :      3.37797


------------------
CARTESIAN GRADIENT
------------------

   1   C   :    0.052415412    0.021588150   -0.012815797
   2   C   :   -0.017984967    0.001509068    0.009596746
   3   H   :    0.015737871    0.007343687   -0.004869879
   4   O   :    0.005990409    0.066010190    0.009203591
   5   O   :   -0.030331049   -0.030743100   -0.023714684
   6   C   :    0.040220568   -0.006168437   -0.029715355
   7   H   :    0.000273840   -0.001735893   -0.000799162
   8   H   :    0.000322241    0.000624030   -0.002762981
   9   C   :   -0.069894433   -0.049209577    0.030822034
  10   H   :    0.005003762    0.001781431   -0.002709803
  11   N   :   -0.049134925    0.000376285    0.033141114
  12   O   :    0.047995596   -0.024651233   -0.031830461
  13   O   :   -0.011370920    0.008428682    0.028093720
  14   H   :   -0.002944867   -0.001828548    0.003554127
  15   H   :    0.013701462    0.006675265   -0.005193208

Difference to translation invariance:
           :   -0.0000000000    0.0000000000   -0.0000000000

Difference to rotation invariance:
           :    0.0000000491   -0.0000001513    0.0000000467

Norm of the Cartesian gradient     ...    0.1748710567
RMS gradient                       ...    0.0260682380
MAX gradient                       ...    0.0698944325
------------------------------------------------------------------------------
                         ORCA GEOMETRY RELAXATION STEP
------------------------------------------------------------------------------

Reading the OPT-File                    .... done
Getting information on internals        .... done
Copying old internal coords+grads       .... done
Making the new internal coordinates     .... (2022 redundants) done
Validating the new internal coordinates .... (2022 redundants) done
Calculating the B-matrix                .... done
Calculating the G,G- and P matrices     .... done
Transforming gradient to internals      .... done
Projecting the internal gradient        .... done
Number of atoms                         ....  15
Number of internal coordinates          ....  62
Current Energy                          ....   -30.740310296 Eh
Current gradient norm                   ....     0.174871057 Eh/bohr
Maximum allowed component of the step   ....  0.300
Current trust radius                    ....  0.300
Evaluating the initial hessian          ....  (Almloef) done
Projecting the Hessian                  .... done
Forming the augmented Hessian           .... done
Diagonalizing the augmented Hessian     .... done
Last element of RFO vector              ....  0.962571684
Lowest eigenvalues of augmented Hessian:
 -0.023712339  0.010017374  0.010285415  0.011375750  0.012018774
Length of the computed step             ....  0.281565752
The final length of the internal step   ....  0.281565752
Converting the step to Cartesian space:
 Initial RMS(Int)=    0.0357588862
Transforming coordinates:
 Iter   0:  RMS(Cart)=    0.0398599774 RMS(Int)=    0.7965050670
 Iter   5:  RMS(Cart)=    0.0000000377 RMS(Int)=    0.0000000332
done
Storing new coordinates                 .... done

                                .--------------------.
          ----------------------|Geometry convergence|-------------------------
          Item                value                   Tolerance       Converged
          ---------------------------------------------------------------------
          RMS gradient        0.0153982391            0.0001000000      NO
          MAX gradient        0.0664676586            0.0003000000      NO
          RMS step            0.0357588862            0.0020000000      NO
          MAX step            0.0973278234            0.0040000000      NO
          -------------------------------------------------------------------------
          ........................................................
          Max(Bonds)      0.0515      Max(Angles)    3.41
          Max(Dihed)        3.72      Max(Improp)    0.00
          ---------------------------------------------------------------------

    ---------------------------------------------------------------------------
                         Redundant Internal Coordinates
                            (Angstroem and degrees)

        Definition                    Value    dE/dq     Step     New-Value
    ----------------------------------------------------------------------------
     1. B(C   1,C   0)                1.5098 -0.012005  0.0167    1.5265   
     2. B(O   3,H   2)                2.0231 -0.004100  0.0515    2.0746   
     3. B(O   4,C   0)                1.2249  0.048726 -0.0246    1.2004   
     4. B(C   5,C   1)                1.5238  0.008191 -0.0093    1.5146   
     5. B(H   6,C   1)                1.0970  0.001626 -0.0023    1.0947   
     6. B(H   7,C   1)                1.0969  0.001534 -0.0022    1.0947   
     7. B(C   8,C   5)                1.5651 -0.015704  0.0247    1.5898   
     8. B(C   8,O   3)                1.2690  0.066468 -0.0392    1.2298   
     9. B(N  10,C   5)                1.5148  0.035344 -0.0488    1.4660   
    10. B(N  10,H   9)                1.6614 -0.005030  0.0292    1.6906   
    11. B(N  10,H   2)                1.0448  0.008711 -0.0118    1.0330   
    12. B(O  11,C   8)                1.2588  0.061355 -0.0349    1.2239   
    13. B(O  12,H   9)                0.9997 -0.001279 -0.0001    0.9995   
    14. B(O  12,C   0)                1.3554  0.028236 -0.0226    1.3329   
    15. B(H  13,C   5)                1.0952  0.002106 -0.0030    1.0922   
    16. B(H  14,N  10)                1.0296  0.006556 -0.0081    1.0214   
    17. A(C   1,C   0,O  12)          114.15 -0.007308    1.47    115.62   
    18. A(O   4,C   0,O  12)          121.75 -0.004257    0.33    122.08   
    19. A(C   1,C   0,O   4)          123.92  0.011451   -1.61    122.31   
    20. A(C   0,C   1,H   7)          107.80  0.000742   -0.55    107.25   
    21. A(C   5,C   1,H   7)          111.66  0.000191   -0.43    111.23   
    22. A(C   0,C   1,C   5)          112.90  0.003410    0.05    112.95   
    23. A(H   6,C   1,H   7)          107.38 -0.000394    0.20    107.58   
    24. A(C   5,C   1,H   6)          109.51 -0.001012    0.20    109.71   
    25. A(C   0,C   1,H   6)          107.36 -0.003225    0.56    107.92   
    26. A(C   8,C   5,N  10)          108.96 -0.002046    0.52    109.48   
    27. A(C   1,C   5,N  10)          110.47  0.002561   -0.15    110.32   
    28. A(N  10,C   5,H  13)          108.58 -0.003244    0.59    109.17   
    29. A(C   1,C   5,H  13)          111.62 -0.000711    0.10    111.72   
    30. A(C   1,C   5,C   8)          106.24 -0.000214   -0.17    106.06   
    31. A(C   8,C   5,H  13)          110.93  0.003760   -0.89    110.04   
    32. A(C   5,C   8,O  11)          115.53  0.011066   -1.38    114.15   
    33. A(O   3,C   8,O  11)          130.73 -0.018967    2.19    132.92   
    34. A(O   3,C   8,C   5)          113.72  0.007872   -0.72    113.00   
    35. A(H   2,N  10,C   5)          101.43 -0.010491    2.62    104.05   
    36. A(C   5,N  10,H  14)          104.22 -0.015217    3.09    107.31   
    37. A(H   2,N  10,H  14)           98.07 -0.004584    3.41    101.49   
    38. A(C   0,O  12,H   9)          109.07 -0.005555    1.00    110.07   
    39. D(H   6,C   1,C   0,O  12)    160.64  0.000493   -0.39    160.25   
    40. D(H   7,C   1,C   0,O   4)     91.17 -0.003016    2.45     93.62   
    41. D(C   5,C   1,C   0,O  12)     39.85  0.001842   -1.06     38.79   
    42. D(C   5,C   1,C   0,O   4)   -145.02  0.000046    1.54   -143.48   
    43. D(H   6,C   1,C   0,O   4)    -24.24 -0.001304    2.21    -22.03   
    44. D(C   8,C   5,C   1,H   6)     59.68  0.000279    0.14     59.83   
    45. D(C   8,C   5,C   1,C   0)    179.23 -0.002284    1.03    180.26   
    46. D(N  10,C   5,C   1,H   6)    177.71 -0.000927    0.58    178.30   
    47. D(N  10,C   5,C   1,H   7)     58.91  0.000100    0.48     59.39   
    48. D(C   8,C   5,C   1,H   7)    -59.12  0.001306    0.03    -59.08   
    49. D(N  10,C   5,C   1,C   0)    -62.74 -0.003490    1.47    -61.27   
    50. D(O   3,C   8,C   5,H  13)   -139.78  0.002862   -2.89   -142.67   
    51. D(O   3,C   8,C   5,N  10)    -20.30 -0.000136   -2.38    -22.67   
    52. D(O  11,C   8,C   5,C   1)    -82.58  0.000293    1.05    -81.53   
    53. D(O   3,C   8,C   5,C   1)     98.73  0.001696   -2.38     96.35   
    54. D(O  11,C   8,C   5,N  10)    158.40 -0.001539    1.05    159.45   
    55. D(H  14,N  10,C   5,H  13)     54.70  0.007533   -3.72     50.98   
    56. D(H  14,N  10,C   5,C   8)    -66.24  0.006142   -3.30    -69.53   
    57. D(H  14,N  10,C   5,C   1)    177.41  0.006146   -3.31    174.11   
    58. D(H   2,N  10,C   5,H  13)    156.18 -0.004406    1.49    157.67   
    59. D(H   2,N  10,C   5,C   8)     35.24 -0.005797    1.91     37.16   
    60. D(H   2,N  10,C   5,C   1)    -81.11 -0.005794    1.90    -79.20   
    61. D(H   9,O  12,C   0,O   4)    179.84  0.000805   -1.43    178.40   
    62. D(H   9,O  12,C   0,C   1)     -4.92 -0.000087    0.99     -3.93   
    ----------------------------------------------------------------------------

Geometry step timings:
Preparation and reading OPT file:      0.000 s ( 1.538 %)
Internal coordinates            :      0.000 s ( 1.491 %)
B/P matrices and projection     :      0.001 s (33.644 %)
Hessian update/contruction      :      0.000 s ( 9.879 %)
Making the step                 :      0.001 s (31.780 %)
Converting the step to Cartesian:      0.000 s ( 3.728 %)
Storing new data                :      0.000 s ( 1.305 %)
Checking convergence            :      0.000 s ( 1.445 %)
Final printing                  :      0.000 s (15.191 %)
Total time                      :      0.002 s

Time for energy+gradient        :      0.063 s
Time for complete geometry iter :      0.066 s

         *************************************************************
         *                GEOMETRY OPTIMIZATION CYCLE   2            *
         *************************************************************
---------------------------------
CARTESIAN COORDINATES (ANGSTROEM)
---------------------------------
  C    -5.223992   -0.139436   -2.810610
  C    -3.970834    0.596573   -3.277313
  H    -3.489042    2.596422   -1.466465
  O    -1.803984    2.805681   -2.658413
  O    -5.795297   -0.936210   -3.503198
  C    -2.964767    0.811762   -2.165869
  H    -3.514161    0.008885   -4.080138
  H    -4.295312    1.549161   -3.708260
  C    -1.742961    1.588431   -2.822729
  H    -5.047245    0.849449   -1.173353
  N    -3.550360    1.632076   -1.101274
  O    -0.956329    0.867345   -3.422040
  O    -5.671013    0.195432   -1.600424
  H    -2.622127   -0.134747   -1.741958
  H    -2.874035    1.664188   -0.336483

----------------------------
CARTESIAN COORDINATES (A.U.)
----------------------------
  NO LB    ZA    FRAG    MASS        X           Y           Z
   0 C   6.0000    1    12.011   -9.871914   -0.263495   -5.311284
   1 C   6.0000    1    12.011   -7.503788    1.127359   -6.193225
   2 H   1.0000    1     1.008   -6.593335    4.906526   -2.771217
   3 O   8.0000    1    15.999   -3.409035    5.301969   -5.023672
   4 O   8.0000    1    15.999  -10.951524   -1.769181   -6.620084
   5 C   6.0000    1    12.011   -5.602597    1.534009   -4.092899
   6 H   1.0000    1     1.008   -6.640802    0.016790   -7.710343
   7 H   1.0000    1     1.008   -8.116964    2.927490   -7.007596
   8 C   6.0000    1    12.011   -3.293720    3.001700   -5.334184
   9 H   1.0000    1     1.008   -9.537911    1.605226   -2.217316
  10 N   7.0000    1    14.007   -6.709208    3.084177   -2.081106
  11 O   8.0000    1    15.999   -1.807200    1.639044   -6.466718
  12 O   8.0000    1    15.999  -10.716661    0.369313   -3.024363
  13 H   1.0000    1     1.008   -4.955103   -0.254635   -3.291823
  14 H   1.0000    1     1.008   -5.431139    3.144860   -0.635861

      -----------------------------------------------------------      
     |                   =====================                   |     
     |                           x T B                           |     
     |                   =====================                   |     
     |                         S. Grimme                         |     
     |          Mulliken Center for Theoretical Chemistry        |     
     |                    University of Bonn                     |     
      -----------------------------------------------------------      

   * xtb version 6.7.1 (edcfbbe) compiled by 'albert@albert-system' on 2024-07-22

   xtb is free software: you can redistribute it and/or modify it under
   the terms of the GNU Lesser General Public License as published by
   the Free Software Foundation, either version 3 of the License, or
   (at your option) any later version.
   
   xtb is distributed in the hope that it will be useful,
   but WITHOUT ANY WARRANTY; without even the implied warranty of
   MERCHANTABILITY or FITNESS FOR A PARTICULAR PURPOSE.  See the
   GNU Lesser General Public License for more details.
   
   Cite this work as:
   * C. Bannwarth, E. Caldeweyher, S. Ehlert, A. Hansen, P. Pracht,
     J. Seibert, S. Spicher, S. Grimme, WIREs Comput. Mol. Sci., 2020, 11,
     e01493. DOI: 10.1002/wcms.1493
   
   for GFN2-xTB:
   * C. Bannwarth, S. Ehlert and S. Grimme., J. Chem. Theory Comput., 2019,
     15, 1652-1671. DOI: 10.1021/acs.jctc.8b01176
   for GFN1-xTB:
   * S. Grimme, C. Bannwarth, P. Shushkov, J. Chem. Theory Comput., 2017,
     13, 1989-2009. DOI: 10.1021/acs.jctc.7b00118
   for GFN0-xTB:
   * P. Pracht, E. Caldeweyher, S. Ehlert, S. Grimme, ChemRxiv, 2019, preprint.
     DOI: 10.26434/chemrxiv.8326202.v1
   for GFN-FF:
   * S. Spicher and S. Grimme, Angew. Chem. Int. Ed., 2020, 59, 15665-15673.
     DOI: 10.1002/anie.202004239
   
   for ALPB and GBSA implicit solvation:
   * S. Ehlert, M. Stahn, S. Spicher, S. Grimme, J. Chem. Theory Comput.,
     2021, 17, 4250-4261. DOI: 10.1021/acs.jctc.1c00471
   
   for ddCOSMO and CPCM-X implicit solvation:
   * M. Stahn, S. Ehlert, S. Grimme, J. Phys. Chem. A,
     2023, XX, XXXX-XXXX. DOI: 10.1021/acs.jpca.3c04382
   
   for DFT-D4:
   * E. Caldeweyher, C. Bannwarth and S. Grimme, J. Chem. Phys., 2017,
     147, 034112. DOI: 10.1063/1.4993215
   * E. Caldeweyher, S. Ehlert, A. Hansen, H. Neugebauer, S. Spicher,
     C. Bannwarth and S. Grimme, J. Chem. Phys., 2019, 150, 154122.
     DOI: 10.1063/1.5090222
   * E. Caldeweyher, J.-M. Mewes, S. Ehlert and S. Grimme, Phys. Chem. Chem. Phys.
     2020, 22, 8499-8512. DOI: 10.1039/D0CP00502A
   
   for sTDA-xTB:
   * S. Grimme and C. Bannwarth, J. Chem. Phys., 2016, 145, 054103.
     DOI: 10.1063/1.4959605
   
   in the mass-spec context:
   * V. Asgeirsson, C. Bauer and S. Grimme, Chem. Sci., 2017, 8, 4879.
     DOI: 10.1039/c7sc00601b
   * J. Koopman and S. Grimme, ACS Omega 2019, 4, 12, 15120-15133.
     DOI: 10.1021/acsomega.9b02011
   
   for metadynamics refer to:
   * S. Grimme, J. Chem. Theory Comput., 2019, 155, 2847-2862
     DOI: 10.1021/acs.jctc.9b00143
   
   for SPH calculations refer to:
   * S. Spicher and S. Grimme, J. Chem. Theory Comput., 2021, 17, 1701-1714
     DOI: 10.1021/acs.jctc.0c01306
   
   for ONIOM refer to:
   * C. Plett, A. Katbashev, S. Ehlert, S. Grimme, M. Bursch,
     Phys. Chem. Chem. Phys., 2023, 25, 17860-17868. DOI: 10.1039/D3CP02178E
   
   for DIPRO refer to:
   * J. Kohn, N. Gildemeister, S. Grimme, D. Fazzi, A. Hansen,
     J. Chem. Phys., 2023, just accepted.
   
   for PTB refer to:
   * S. Grimme, M. Mueller, A. Hansen, J. Chem. Phys., 2023, 158, 124111.
     DOI: 10.1063/5.0137838
   
   with help from (in alphabetical order)
   P. Atkinson, C. Bannwarth, F. Bohle, G. Brandenburg, E. Caldeweyher
   M. Checinski, S. Dohm, S. Ehlert, S. Ehrlich, I. Gerasimov, C. Hölzer
   A. Katbashev, J. Kohn, J. Koopman, C. Lavigne, S. Lehtola, F. März, M. Müller,
   F. Musil, H. Neugebauer, J. Pisarek, C. Plett, P. Pracht, F. Pultar,
   J. Seibert, P. Shushkov, S. Spicher, M. Stahn, M. Steiner, T. Strunk,
   J. Stückrath, T. Rose, and J. Unsleber
   
 * started run on 2025/08/06 at 20:08:03.898     
   ID    Z sym.   atoms
    1    6 C      1, 2, 6, 9
    2    1 H      3, 7, 8, 10, 14, 15
    3    8 O      4, 5, 12, 13
    4    7 N      11

           -------------------------------------------------
          |                Calculation Setup                |
           -------------------------------------------------

          program call               : /home/uni/orca_6_1_0/otool_xtb d_XTB.xyz --grad -c 0 -u 0 -P 9 --namespace d --input d_XTB.input.tmp --acc 0.200000
          calculation namespace      : d
          coordinate file            : d_XTB.xyz
          omp threads                :                     9


           -------------------------------------------------
          |                 G F N 2 - x T B                 |
           -------------------------------------------------

        Reference                      10.1021/acs.jctc.8b01176
      * Hamiltonian:
        H0-scaling (s, p, d)           1.850000    2.230000    2.230000
        zeta-weighting                 0.500000
      * Dispersion:
        s8                             2.700000
        a1                             0.520000
        a2                             5.000000
        s9                             5.000000
      * Repulsion:
        kExp                           1.500000    1.000000
        rExp                           1.000000
      * Coulomb:
        alpha                          2.000000
        third order                    shell-resolved
        anisotropic                    true
        a3                             3.000000
        a5                             4.000000
        cn-shift                       1.200000
        cn-exp                         4.000000
        max-rad                        5.000000

q/qsh data taken from xtbrestart
CAMM data taken from xtbrestart

          ...................................................
          :                      SETUP                      :
          :.................................................:
          :  # basis functions                  42          :
          :  # atomic orbitals                  42          :
          :  # shells                           24          :
          :  # electrons                        51          :
          :  max. iterations                   250          :
          :  Hamiltonian                  GFN2-xTB          :
          :  restarted?                       true          :
          :  GBSA solvation                  false          :
          :  PC potential                    false          :
          :  electronic temp.          300.0000000     K    :
          :  accuracy                    0.2000000          :
          :  -> integral cutoff          0.3198970E+02      :
          :  -> integral neglect         0.2000000E-08      :
          :  -> SCF convergence          0.2000000E-06 Eh   :
          :  -> wf. convergence          0.2000000E-04 e    :
          :  Broyden damping             0.4000000          :
          :  net charge                          0          :
          :  unpaired electrons                  0          :
          ...................................................

 iter      E             dE          RMSdq      gap      omega  full diag
   1    -31.0148685 -0.310149E+02  0.329E-01    4.15       0.0  T
   2    -31.0154132 -0.544642E-03  0.215E-01    4.18       1.0  T
   3    -31.0156597 -0.246533E-03  0.122E-01    4.16       1.0  T
   4    -31.0156479  0.118481E-04  0.648E-02    4.16       1.0  T
   5    -31.0156972 -0.493709E-04  0.118E-02    4.17       2.2  T
   6    -31.0156982 -0.928053E-06  0.638E-03    4.17       4.0  T
   7    -31.0156983 -0.128544E-06  0.178E-03    4.17      14.5  T
   8    -31.0156983 -0.118227E-07  0.741E-04    4.17      34.8  T
   9    -31.0156983 -0.321506E-09  0.245E-04    4.17     105.3  T
  10    -31.0156983 -0.455483E-09  0.620E-05    4.17     416.1  T
  11    -31.0156983 -0.316724E-10  0.325E-05    4.17     794.8  T

   *** convergence criteria satisfied after 11 iterations ***

         #    Occupation            Energy/Eh            Energy/eV
      -------------------------------------------------------------
         1        2.0000           -0.7748352             -21.0843
       ...           ...                  ...                  ...
        20        2.0000           -0.5191317             -14.1263
        21        2.0000           -0.5044223             -13.7260
        22        2.0000           -0.4961418             -13.5007
        23        2.0000           -0.4790047             -13.0344
        24        2.0000           -0.4660758             -12.6826
        25        2.0000           -0.4604471             -12.5294
        26        1.0000           -0.4232406             -11.5170 (HOMO)
        27                         -0.2701123              -7.3501 (LUMO)
        28                         -0.2416704              -6.5762
        29                         -0.0407035              -1.1076
        30                          0.0042216               0.1149
        31                          0.0296333               0.8064
       ...                                ...                  ...
        42                          0.6676816              18.1685
      -------------------------------------------------------------
                  HL-Gap            0.1531283 Eh            4.1668 eV
             Fermi-level           -0.3942595 Eh          -10.7283 eV

 SCC (total)                   0 d,  0 h,  0 min,  0.017 sec
 SCC setup                      ...        0 min,  0.000 sec (  1.522%)
 Dispersion                     ...        0 min,  0.000 sec (  2.108%)
 classical contributions        ...        0 min,  0.000 sec (  0.599%)
 integral evaluation            ...        0 min,  0.001 sec (  4.053%)
 iterations                     ...        0 min,  0.013 sec ( 79.746%)
 molecular gradient             ...        0 min,  0.002 sec ( 10.752%)
 printout                       ...        0 min,  0.000 sec (  1.118%)

         :::::::::::::::::::::::::::::::::::::::::::::::::::::
         ::                     SUMMARY                     ::
         :::::::::::::::::::::::::::::::::::::::::::::::::::::
         :: total energy             -30.758046273320 Eh    ::
         :: gradient norm              0.100198709701 Eh/a0 ::
         :: HOMO-LUMO gap              4.166832692856 eV    ::
         ::.................................................::
         :: SCC energy               -31.015674133400 Eh    ::
         :: -> isotropic ES            0.106511401379 Eh    ::
         :: -> anisotropic ES         -0.000549054918 Eh    ::
         :: -> anisotropic XC          0.002328435934 Eh    ::
         :: -> dispersion             -0.010230985032 Eh    ::
         :: repulsion energy           0.257627860081 Eh    ::
         :: add. restraining           0.000000000000 Eh    ::
         :: total charge               0.000000000008 e     ::
         :::::::::::::::::::::::::::::::::::::::::::::::::::::


Property printout bound to 'properties.out'

           -------------------------------------------------
          | TOTAL ENERGY              -30.758046273320 Eh   |
          | GRADIENT NORM               0.100198709701 Eh/α |
          | HOMO-LUMO GAP               4.166832692856 eV   |
           -------------------------------------------------

------------------------------------------------------------------------
 * finished run on 2025/08/06 at 20:08:03.924     
------------------------------------------------------------------------
 total:
 * wall-time:     0 d,  0 h,  0 min,  0.026 sec
 *  cpu-time:     0 d,  0 h,  0 min,  0.038 sec
 * ratio c/w:     1.492 speedup
 SCF:
 * wall-time:     0 d,  0 h,  0 min,  0.017 sec
 *  cpu-time:     0 d,  0 h,  0 min,  0.027 sec
 * ratio c/w:     1.648 speedup


-------------------------   --------------------
FINAL SINGLE POINT ENERGY       -30.758046273320
-------------------------   --------------------


-------------
DIPOLE MOMENT
-------------
                                X             Y             Z
Total Dipole Moment    :     -0.17900       0.57300       1.41600
                        -----------------------------------------
Magnitude (a.u.)       :      1.53799
Magnitude (Debye)      :      3.90927


------------------
CARTESIAN GRADIENT
------------------

   1   C   :    0.023573750    0.008301861   -0.013782219
   2   C   :   -0.012667662    0.000218077    0.008046961
   3   H   :    0.011602531    0.002591066   -0.002678839
   4   O   :    0.006018893    0.024509135   -0.002153605
   5   O   :   -0.009672502   -0.007409055   -0.001958063
   6   C   :    0.035761269    0.003987911   -0.024507681
   7   H   :    0.001303478   -0.000549454   -0.000406784
   8   H   :    0.000742460   -0.000421340   -0.001511721
   9   C   :   -0.043790188   -0.033294387    0.029000904
  10   H   :    0.004078090    0.002370135   -0.000937142
  11   N   :   -0.032308866   -0.003465901    0.016789965
  12   O   :    0.019066693   -0.001251643   -0.015053823
  13   O   :   -0.008201805   -0.000515395    0.011421143
  14   H   :   -0.003764759    0.000331947    0.002929480
  15   H   :    0.008258618    0.004597042   -0.005198575

Difference to translation invariance:
           :   -0.0000000000    0.0000000000    0.0000000000

Difference to rotation invariance:
           :    0.0000002330   -0.0000002760    0.0000002225

Norm of the Cartesian gradient     ...    0.1001987097
RMS gradient                       ...    0.0149367417
MAX gradient                       ...    0.0437901882
------------------------------------------------------------------------------
                         ORCA GEOMETRY RELAXATION STEP
------------------------------------------------------------------------------

Reading the OPT-File                    .... done
Getting information on internals        .... done
Copying old internal coords+grads       .... done
Making the new internal coordinates     .... (2022 redundants) done
Validating the new internal coordinates .... (2022 redundants) done
Calculating the B-matrix                .... done
Calculating the G,G- and P matrices     .... done
Transforming gradient to internals      .... done
Projecting the internal gradient        .... done
Number of atoms                         ....  15
Number of internal coordinates          ....  62
Current Energy                          ....   -30.758046273 Eh
Current gradient norm                   ....     0.100198710 Eh/bohr
Maximum allowed component of the step   ....  0.300
Current trust radius                    ....  0.300
Updating the Hessian (BFGS)             .... done
Forming the augmented Hessian           .... done
Diagonalizing the augmented Hessian     .... done
Last element of RFO vector              ....  0.913407246
Lowest eigenvalues of augmented Hessian:
 -0.017556527  0.010059502  0.011330067  0.011964873  0.012185965
Length of the computed step             ....  0.445635756
Warning: the length of the step is outside the trust region - taking restricted step instead
The input lambda is                     ....     0.008935
   iter:   5  x=   -0.000658  g=  328.469565 f(x)=     1.289448
   iter:  10  x=   -0.046440  g=    2.065939 f(x)=     0.010154
The output lambda is                    ....    -0.046982 (14 iterations)
The final length of the internal step   ....  0.300000000
Converting the step to Cartesian space:
 Initial RMS(Int)=    0.0381000381
Transforming coordinates:
 Iter   0:  RMS(Cart)=    0.0347213153 RMS(Int)=    0.0379790979
 Iter   5:  RMS(Cart)=    0.0000000228 RMS(Int)=    0.0000000174
done
Storing new coordinates                 .... done
The predicted energy change is          ....    -0.008977724
Previously predicted energy change      ....    -0.012796118
Actually observed energy change         ....    -0.017735977
Ratio of predicted to observed change   ....     1.386043582
New trust radius                        ....     0.300000000

                                .--------------------.
          ----------------------|Geometry convergence|-------------------------
          Item                value                   Tolerance       Converged
          ---------------------------------------------------------------------
          Energy change      -0.0177359775            0.0000050000      NO
          RMS gradient        0.0070736656            0.0001000000      NO
          MAX gradient        0.0236087231            0.0003000000      NO
          RMS step            0.0381000381            0.0020000000      NO
          MAX step            0.1022102423            0.0040000000      NO
          -------------------------------------------------------------------------
          ........................................................
          Max(Bonds)      0.0541      Max(Angles)    4.12
          Max(Dihed)        4.09      Max(Improp)    0.00
          ---------------------------------------------------------------------

    ---------------------------------------------------------------------------
                         Redundant Internal Coordinates
                            (Angstroem and degrees)

        Definition                    Value    dE/dq     Step     New-Value
    ----------------------------------------------------------------------------
     1. B(C   1,C   0)                1.5264 -0.007904  0.0196    1.5461   
     2. B(O   3,H   2)                2.0746 -0.003702  0.0443    2.1189   
     3. B(O   4,C   0)                1.2004  0.010651 -0.0147    1.1856   
     4. B(C   5,C   1)                1.5145  0.001871 -0.0052    1.5093   
     5. B(H   6,C   1)                1.0947  0.001137 -0.0030    1.0917   
     6. B(H   7,C   1)                1.0947  0.000008 -0.0004    1.0943   
     7. B(C   8,C   5)                1.5898 -0.020779  0.0541    1.6439   
     8. B(C   8,O   3)                1.2298  0.023609 -0.0321    1.1977   
     9. B(N  10,C   5)                1.4660  0.015856 -0.0446    1.4214   
    10. B(N  10,H   9)                1.6907 -0.003260  0.0279    1.7186   
    11. B(N  10,H   2)                1.0330  0.002776 -0.0082    1.0248   
    12. B(O  11,C   8)                1.2239  0.020364 -0.0273    1.1966   
    13. B(O  12,H   9)                0.9996  0.000847 -0.0021    0.9975   
    14. B(O  12,C   0)                1.3329  0.011831 -0.0205    1.3124   
    15. B(H  13,C   5)                1.0922 -0.000332  0.0002    1.0924   
    16. B(H  14,N  10)                1.0214  0.001720 -0.0051    1.0164   
    17. A(C   1,C   0,O  12)          115.58  0.000159    0.41    115.99   
    18. A(O   4,C   0,O  12)          122.07 -0.007092    1.31    123.38   
    19. A(C   1,C   0,O   4)          122.30  0.006942   -1.80    120.50   
    20. A(C   0,C   1,H   7)          107.25  0.000495   -0.56    106.69   
    21. A(C   5,C   1,H   7)          111.23  0.000446   -0.42    110.81   
    22. A(C   0,C   1,C   5)          112.92  0.001625   -0.25    112.67   
    23. A(H   6,C   1,H   7)          107.58 -0.000499    0.37    107.95   
    24. A(C   5,C   1,H   6)          109.72 -0.001487    0.60    110.32   
    25. A(C   0,C   1,H   6)          107.93 -0.000663    0.31    108.24   
    26. A(C   8,C   5,N  10)          109.49 -0.000271    0.09    109.58   
    27. A(C   1,C   5,N  10)          110.31 -0.001800    0.79    111.10   
    28. A(N  10,C   5,H  13)          109.17 -0.004190    1.54    110.71   
    29. A(C   1,C   5,H  13)          111.72  0.000775   -0.12    111.60   
    30. A(C   1,C   5,C   8)          106.06  0.002117   -0.90    105.17   
    31. A(C   8,C   5,H  13)          110.04  0.003586   -1.46    108.58   
    32. A(C   5,C   8,O  11)          114.11  0.010334   -2.36    111.75   
    33. A(O   3,C   8,O  11)          132.88 -0.019952    4.12    137.00   
    34. A(O   3,C   8,C   5)          112.97  0.009472   -2.02    110.95   
    35. A(H   2,N  10,C   5)          104.00 -0.007372    3.01    107.01   
    36. A(C   5,N  10,H  14)          107.27 -0.010844    3.88    111.15   
    37. A(H   2,N  10,H  14)          101.31 -0.002222    3.38    104.68   
    38. A(C   0,O  12,H   9)          110.06 -0.002918    0.94    111.00   
    39. D(H   6,C   1,C   0,O  12)    160.25 -0.000627    0.74    160.99   
    40. D(H   7,C   1,C   0,O   4)     93.61 -0.001235    0.60     94.21   
    41. D(C   5,C   1,C   0,O  12)     38.80  0.000669   -0.07     38.73   
    42. D(C   5,C   1,C   0,O   4)   -143.49  0.000722   -0.51   -144.00   
    43. D(H   6,C   1,C   0,O   4)    -22.04 -0.000574    0.30    -21.74   
    44. D(C   8,C   5,C   1,H   6)     59.83 -0.000476    0.22     60.05   
    45. D(C   8,C   5,C   1,C   0)   -179.74 -0.001284    0.86   -178.87   
    46. D(N  10,C   5,C   1,H   6)    178.30 -0.000528    0.23    178.53   
    47. D(N  10,C   5,C   1,H   7)     59.39  0.000768   -0.36     59.03   
    48. D(C   8,C   5,C   1,H   7)    -59.09  0.000819   -0.36    -59.45   
    49. D(N  10,C   5,C   1,C   0)    -61.26 -0.001335    0.87    -60.39   
    50. D(O   3,C   8,C   5,H  13)   -142.66  0.001843    0.73   -141.93   
    51. D(O   3,C   8,C   5,N  10)    -22.67 -0.001265    1.79    -20.88   
    52. D(O  11,C   8,C   5,C   1)    -81.53  0.001583   -3.60    -85.14   
    53. D(O   3,C   8,C   5,C   1)     96.34 -0.002344    2.27     98.62   
    54. D(O  11,C   8,C   5,N  10)    159.45  0.002662   -4.09    155.36   
    55. D(H  14,N  10,C   5,H  13)     50.93  0.006577   -4.08     46.85   
    56. D(H  14,N  10,C   5,C   8)    -69.59  0.004930   -3.29    -72.88   
    57. D(H  14,N  10,C   5,C   1)    174.05  0.003563   -2.71    171.34   
    58. D(H   2,N  10,C   5,H  13)    157.73 -0.002671    1.73    159.46   
    59. D(H   2,N  10,C   5,C   8)     37.21 -0.004317    2.52     39.73   
    60. D(H   2,N  10,C   5,C   1)    -79.15 -0.005684    3.10    -76.04   
    61. D(H   9,O  12,C   0,O   4)    178.38  0.000209   -0.18    178.21   
    62. D(H   9,O  12,C   0,C   1)     -3.91  0.000615   -0.72     -4.63   
    ----------------------------------------------------------------------------

Geometry step timings:
Preparation and reading OPT file:      0.000 s ( 1.010 %)
Internal coordinates            :      0.000 s ( 1.243 %)
B/P matrices and projection     :      0.000 s (28.516 %)
Hessian update/contruction      :      0.000 s (12.354 %)
Making the step                 :      0.000 s (36.830 %)
Converting the step to Cartesian:      0.000 s ( 2.875 %)
Storing new data                :      0.000 s ( 1.088 %)
Checking convergence            :      0.000 s ( 1.554 %)
Final printing                  :      0.000 s (14.530 %)
Total time                      :      0.001 s

Time for energy+gradient        :      0.031 s
Time for complete geometry iter :      0.033 s

         *************************************************************
         *                GEOMETRY OPTIMIZATION CYCLE   3            *
         *************************************************************
---------------------------------
CARTESIAN COORDINATES (ANGSTROEM)
---------------------------------
  C    -5.240320   -0.135920   -2.788517
  C    -3.966310    0.592825   -3.274216
  H    -3.532416    2.578344   -1.471075
  O    -1.794354    2.796520   -2.663515
  O    -5.790766   -0.918270   -3.489012
  C    -2.966066    0.815351   -2.166170
  H    -3.519021    0.001742   -4.075759
  H    -4.292925    1.546393   -3.700230
  C    -1.716732    1.619222   -2.869584
  H    -5.063799    0.856029   -1.163510
  N    -3.520964    1.612476   -1.128555
  O    -0.939852    0.869430   -3.385491
  O    -5.683699    0.209378   -1.602541
  H    -2.591263   -0.130405   -1.768183
  H    -2.902971    1.641899   -0.322167

----------------------------
CARTESIAN COORDINATES (A.U.)
----------------------------
  NO LB    ZA    FRAG    MASS        X           Y           Z
   0 C   6.0000    1    12.011   -9.902769   -0.256852   -5.269533
   1 C   6.0000    1    12.011   -7.495239    1.120276   -6.187372
   2 H   1.0000    1     1.008   -6.675298    4.872363   -2.779929
   3 O   8.0000    1    15.999   -3.390838    5.284657   -5.033315
   4 O   8.0000    1    15.999  -10.942961   -1.735280   -6.593277
   5 C   6.0000    1    12.011   -5.605053    1.540791   -4.093469
   6 H   1.0000    1     1.008   -6.649986    0.003291   -7.702069
   7 H   1.0000    1     1.008   -8.112453    2.922260   -6.992421
   8 C   6.0000    1    12.011   -3.244154    3.059886   -5.422729
   9 H   1.0000    1     1.008   -9.569192    1.617661   -2.198715
  10 N   7.0000    1    14.007   -6.653658    3.047139   -2.132660
  11 O   8.0000    1    15.999   -1.776063    1.642985   -6.397651
  12 O   8.0000    1    15.999  -10.740635    0.395666   -3.028364
  13 H   1.0000    1     1.008   -4.896778   -0.246430   -3.341381
  14 H   1.0000    1     1.008   -5.485821    3.102740   -0.608807

      -----------------------------------------------------------      
     |                   =====================                   |     
     |                           x T B                           |     
     |                   =====================                   |     
     |                         S. Grimme                         |     
     |          Mulliken Center for Theoretical Chemistry        |     
     |                    University of Bonn                     |     
      -----------------------------------------------------------      

   * xtb version 6.7.1 (edcfbbe) compiled by 'albert@albert-system' on 2024-07-22

   xtb is free software: you can redistribute it and/or modify it under
   the terms of the GNU Lesser General Public License as published by
   the Free Software Foundation, either version 3 of the License, or
   (at your option) any later version.
   
   xtb is distributed in the hope that it will be useful,
   but WITHOUT ANY WARRANTY; without even the implied warranty of
   MERCHANTABILITY or FITNESS FOR A PARTICULAR PURPOSE.  See the
   GNU Lesser General Public License for more details.
   
   Cite this work as:
   * C. Bannwarth, E. Caldeweyher, S. Ehlert, A. Hansen, P. Pracht,
     J. Seibert, S. Spicher, S. Grimme, WIREs Comput. Mol. Sci., 2020, 11,
     e01493. DOI: 10.1002/wcms.1493
   
   for GFN2-xTB:
   * C. Bannwarth, S. Ehlert and S. Grimme., J. Chem. Theory Comput., 2019,
     15, 1652-1671. DOI: 10.1021/acs.jctc.8b01176
   for GFN1-xTB:
   * S. Grimme, C. Bannwarth, P. Shushkov, J. Chem. Theory Comput., 2017,
     13, 1989-2009. DOI: 10.1021/acs.jctc.7b00118
   for GFN0-xTB:
   * P. Pracht, E. Caldeweyher, S. Ehlert, S. Grimme, ChemRxiv, 2019, preprint.
     DOI: 10.26434/chemrxiv.8326202.v1
   for GFN-FF:
   * S. Spicher and S. Grimme, Angew. Chem. Int. Ed., 2020, 59, 15665-15673.
     DOI: 10.1002/anie.202004239
   
   for ALPB and GBSA implicit solvation:
   * S. Ehlert, M. Stahn, S. Spicher, S. Grimme, J. Chem. Theory Comput.,
     2021, 17, 4250-4261. DOI: 10.1021/acs.jctc.1c00471
   
   for ddCOSMO and CPCM-X implicit solvation:
   * M. Stahn, S. Ehlert, S. Grimme, J. Phys. Chem. A,
     2023, XX, XXXX-XXXX. DOI: 10.1021/acs.jpca.3c04382
   
   for DFT-D4:
   * E. Caldeweyher, C. Bannwarth and S. Grimme, J. Chem. Phys., 2017,
     147, 034112. DOI: 10.1063/1.4993215
   * E. Caldeweyher, S. Ehlert, A. Hansen, H. Neugebauer, S. Spicher,
     C. Bannwarth and S. Grimme, J. Chem. Phys., 2019, 150, 154122.
     DOI: 10.1063/1.5090222
   * E. Caldeweyher, J.-M. Mewes, S. Ehlert and S. Grimme, Phys. Chem. Chem. Phys.
     2020, 22, 8499-8512. DOI: 10.1039/D0CP00502A
   
   for sTDA-xTB:
   * S. Grimme and C. Bannwarth, J. Chem. Phys., 2016, 145, 054103.
     DOI: 10.1063/1.4959605
   
   in the mass-spec context:
   * V. Asgeirsson, C. Bauer and S. Grimme, Chem. Sci., 2017, 8, 4879.
     DOI: 10.1039/c7sc00601b
   * J. Koopman and S. Grimme, ACS Omega 2019, 4, 12, 15120-15133.
     DOI: 10.1021/acsomega.9b02011
   
   for metadynamics refer to:
   * S. Grimme, J. Chem. Theory Comput., 2019, 155, 2847-2862
     DOI: 10.1021/acs.jctc.9b00143
   
   for SPH calculations refer to:
   * S. Spicher and S. Grimme, J. Chem. Theory Comput., 2021, 17, 1701-1714
     DOI: 10.1021/acs.jctc.0c01306
   
   for ONIOM refer to:
   * C. Plett, A. Katbashev, S. Ehlert, S. Grimme, M. Bursch,
     Phys. Chem. Chem. Phys., 2023, 25, 17860-17868. DOI: 10.1039/D3CP02178E
   
   for DIPRO refer to:
   * J. Kohn, N. Gildemeister, S. Grimme, D. Fazzi, A. Hansen,
     J. Chem. Phys., 2023, just accepted.
   
   for PTB refer to:
   * S. Grimme, M. Mueller, A. Hansen, J. Chem. Phys., 2023, 158, 124111.
     DOI: 10.1063/5.0137838
   
   with help from (in alphabetical order)
   P. Atkinson, C. Bannwarth, F. Bohle, G. Brandenburg, E. Caldeweyher
   M. Checinski, S. Dohm, S. Ehlert, S. Ehrlich, I. Gerasimov, C. Hölzer
   A. Katbashev, J. Kohn, J. Koopman, C. Lavigne, S. Lehtola, F. März, M. Müller,
   F. Musil, H. Neugebauer, J. Pisarek, C. Plett, P. Pracht, F. Pultar,
   J. Seibert, P. Shushkov, S. Spicher, M. Stahn, M. Steiner, T. Strunk,
   J. Stückrath, T. Rose, and J. Unsleber
   
 * started run on 2025/08/06 at 20:08:03.931     
   ID    Z sym.   atoms
    1    6 C      1, 2, 6, 9
    2    1 H      3, 7, 8, 10, 14, 15
    3    8 O      4, 5, 12, 13
    4    7 N      11

           -------------------------------------------------
          |                Calculation Setup                |
           -------------------------------------------------

          program call               : /home/uni/orca_6_1_0/otool_xtb d_XTB.xyz --grad -c 0 -u 0 -P 9 --namespace d --input d_XTB.input.tmp --acc 0.200000
          calculation namespace      : d
          coordinate file            : d_XTB.xyz
          omp threads                :                     9


           -------------------------------------------------
          |                 G F N 2 - x T B                 |
           -------------------------------------------------

        Reference                      10.1021/acs.jctc.8b01176
      * Hamiltonian:
        H0-scaling (s, p, d)           1.850000    2.230000    2.230000
        zeta-weighting                 0.500000
      * Dispersion:
        s8                             2.700000
        a1                             0.520000
        a2                             5.000000
        s9                             5.000000
      * Repulsion:
        kExp                           1.500000    1.000000
        rExp                           1.000000
      * Coulomb:
        alpha                          2.000000
        third order                    shell-resolved
        anisotropic                    true
        a3                             3.000000
        a5                             4.000000
        cn-shift                       1.200000
        cn-exp                         4.000000
        max-rad                        5.000000

q/qsh data taken from xtbrestart
CAMM data taken from xtbrestart

          ...................................................
          :                      SETUP                      :
          :.................................................:
          :  # basis functions                  42          :
          :  # atomic orbitals                  42          :
          :  # shells                           24          :
          :  # electrons                        51          :
          :  max. iterations                   250          :
          :  Hamiltonian                  GFN2-xTB          :
          :  restarted?                       true          :
          :  GBSA solvation                  false          :
          :  PC potential                    false          :
          :  electronic temp.          300.0000000     K    :
          :  accuracy                    0.2000000          :
          :  -> integral cutoff          0.3198970E+02      :
          :  -> integral neglect         0.2000000E-08      :
          :  -> SCF convergence          0.2000000E-06 Eh   :
          :  -> wf. convergence          0.2000000E-04 e    :
          :  Broyden damping             0.4000000          :
          :  net charge                          0          :
[...]
   J. Seibert, P. Shushkov, S. Spicher, M. Stahn, M. Steiner, T. Strunk,
   J. Stückrath, T. Rose, and J. Unsleber
   
 * started run on 2025/08/06 at 20:08:04.328     
   ID    Z sym.   atoms
    1    6 C      1, 2, 6, 9
    2    1 H      3, 7, 8, 10, 14, 15
    3    8 O      4, 5, 12, 13
    4    7 N      11

           -------------------------------------------------
          |                Calculation Setup                |
           -------------------------------------------------

          program call               : /home/uni/orca_6_1_0/otool_xtb d_XTB.xyz --grad -c 0 -u 0 -P 9 --namespace d --input d_XTB.input.tmp --acc 0.200000
          calculation namespace      : d
          coordinate file            : d_XTB.xyz
          omp threads                :                     9


molecular fragmentation (1/2 indicates fragments):
111211112112111
# atoms in fragment 1/2:    12     3
 fragment masses (1/2) :       88.09       44.01
CMA distance (Bohr)    :   6.867
constraining FC (au)   :  0.0500

           -------------------------------------------------
          |                 G F N 2 - x T B                 |
           -------------------------------------------------

        Reference                      10.1021/acs.jctc.8b01176
      * Hamiltonian:
        H0-scaling (s, p, d)           1.850000    2.230000    2.230000
        zeta-weighting                 0.500000
      * Dispersion:
        s8                             2.700000
        a1                             0.520000
        a2                             5.000000
        s9                             5.000000
      * Repulsion:
        kExp                           1.500000    1.000000
        rExp                           1.000000
      * Coulomb:
        alpha                          2.000000
        third order                    shell-resolved
        anisotropic                    true
        a3                             3.000000
        a5                             4.000000
        cn-shift                       1.200000
        cn-exp                         4.000000
        max-rad                        5.000000

q/qsh data taken from xtbrestart
CAMM data taken from xtbrestart

          ...................................................
          :                      SETUP                      :
          :.................................................:
          :  # basis functions                  42          :
          :  # atomic orbitals                  42          :
          :  # shells                           24          :
          :  # electrons                        51          :
          :  max. iterations                   250          :
          :  Hamiltonian                  GFN2-xTB          :
          :  restarted?                       true          :
          :  GBSA solvation                  false          :
          :  PC potential                    false          :
          :  electronic temp.          300.0000000     K    :
          :  accuracy                    0.2000000          :
          :  -> integral cutoff          0.3198970E+02      :
          :  -> integral neglect         0.2000000E-08      :
          :  -> SCF convergence          0.2000000E-06 Eh   :
          :  -> wf. convergence          0.2000000E-04 e    :
          :  Broyden damping             0.4000000          :
          :  net charge                          0          :
          :  unpaired electrons                  0          :
          ...................................................

 iter      E             dE          RMSdq      gap      omega  full diag
   1    -31.0807792 -0.310808E+02  0.883E-03    2.87       0.0  T
   2    -31.0807793 -0.823963E-07  0.500E-03    2.87       5.2  T
   3    -31.0807792  0.130010E-07  0.209E-03    2.87      12.4  T
   4    -31.0807793 -0.324127E-07  0.281E-04    2.87      92.0  T
   5    -31.0807793 -0.310173E-09  0.883E-05    2.87     292.3  T
   6    -31.0807793 -0.113474E-10  0.370E-05    2.87     698.6  T

   *** convergence criteria satisfied after 6 iterations ***

         #    Occupation            Energy/Eh            Energy/eV
      -------------------------------------------------------------
         1        2.0000           -0.7717722             -21.0010
       ...           ...                  ...                  ...
        20        2.0000           -0.5057235             -13.7614
        21        2.0000           -0.5013896             -13.6435
        22        2.0000           -0.4971688             -13.5287
        23        2.0000           -0.4925461             -13.4029
        24        2.0000           -0.4872251             -13.2581
        25        2.0000           -0.4415369             -12.0148
        26        1.0000           -0.3544916              -9.6462 (HOMO)
        27                         -0.2490682              -6.7775 (LUMO)
        28                         -0.2132015              -5.8015
        29                         -0.1748226              -4.7572
        30                         -0.0169106              -0.4602
        31                          0.0549207               1.4945
       ...                                ...                  ...
        42                          1.1062912              30.1037
      -------------------------------------------------------------
                  HL-Gap            0.1054234 Eh            2.8687 eV
             Fermi-level           -0.3498971 Eh           -9.5212 eV

 SCC (total)                   0 d,  0 h,  0 min,  0.010 sec
 SCC setup                      ...        0 min,  0.000 sec (  1.586%)
 Dispersion                     ...        0 min,  0.000 sec (  1.934%)
 classical contributions        ...        0 min,  0.000 sec (  1.799%)
 integral evaluation            ...        0 min,  0.000 sec (  4.600%)
 iterations                     ...        0 min,  0.008 sec ( 77.468%)
 molecular gradient             ...        0 min,  0.001 sec ( 10.971%)
 printout                       ...        0 min,  0.000 sec (  1.410%)

         :::::::::::::::::::::::::::::::::::::::::::::::::::::
         ::                     SUMMARY                     ::
         :::::::::::::::::::::::::::::::::::::::::::::::::::::
         :: total energy             -30.777924476958 Eh    ::
         :: gradient norm              0.000244794721 Eh/a0 ::
         :: HOMO-LUMO gap              2.868717365685 eV    ::
         ::.................................................::
         :: SCC energy               -31.080751536282 Eh    ::
         :: -> isotropic ES            0.093136986846 Eh    ::
         :: -> anisotropic ES          0.002552701137 Eh    ::
         :: -> anisotropic XC          0.003098560725 Eh    ::
         :: -> dispersion             -0.010453958098 Eh    ::
         :: repulsion energy           0.302827059324 Eh    ::
         :: add. restraining           0.000000000000 Eh    ::
         :: total charge              -0.000000000000 e     ::
         :::::::::::::::::::::::::::::::::::::::::::::::::::::


Property printout bound to 'properties.out'

           -------------------------------------------------
          | TOTAL ENERGY              -30.777924476958 Eh   |
          | GRADIENT NORM               0.000244794721 Eh/α |
          | HOMO-LUMO GAP               2.868717365685 eV   |
           -------------------------------------------------

------------------------------------------------------------------------
 * finished run on 2025/08/06 at 20:08:04.346     
------------------------------------------------------------------------
 total:
 * wall-time:     0 d,  0 h,  0 min,  0.017 sec
 *  cpu-time:     0 d,  0 h,  0 min,  0.026 sec
 * ratio c/w:     1.481 speedup
 SCF:
 * wall-time:     0 d,  0 h,  0 min,  0.010 sec
 *  cpu-time:     0 d,  0 h,  0 min,  0.018 sec
 * ratio c/w:     1.695 speedup


-------------------------   --------------------
FINAL SINGLE POINT ENERGY       -30.777924476960
-------------------------   --------------------


-------------
DIPOLE MOMENT
-------------
                                X             Y             Z
Total Dipole Moment    :      0.24800       1.08800       1.50900
                        -----------------------------------------
Magnitude (a.u.)       :      1.87679
Magnitude (Debye)      :      4.77041

                                *** OPTIMIZATION RUN DONE ***

		     ------------------------------
			                   _   
			                  | |  
			  __ _  ___   __ _| |_ 
			 / _` |/ _ \ / _` | __|
			| (_| | (_) | (_| | |_ 
			 \__, |\___/ \__,_|\__|
			 __/ |                
			|___/                 

		      A Global Optimizer Algorithm
		     ------------------------------

Global parameters
-----------------
  GOAT version                               ... default
  Minimum global steps                       ... 3
  Number of base workers                     ... 4
  Split workers by                           ... 2
  Final number of workers                    ... 8
  Number of available CPUs                   ... 9
  Parameter list (worker : temperature)      ...  0 : 2903.97,  1 : 1451.98, 
                                                  2 :  725.99,  3 :  363.00, 
                                                  4 : 2903.97,  5 : 1451.98, 
                                                  6 :  725.99,  7 :  363.00 
  GradComp (mean : sigma)                    ... 1.00 : 0.50
  Number of fragments                        ... 1
  Number of atoms                            ... 15
  Flexibility parameter                      ... 0.75
  Optimizations per global step              ... 168
  Optimizations per worker                   ... 21

Filtering criteria
------------------
  RMSD                                       ... 0.125 Angs (atom. pos.)
  EnDiff                                     ... 0.100 kcal/mol
  RotConst                                   ... 1.00-2.50 %
  Maximum Conf. Energy                       ... 6.000 kcal/mol

Thermodynamics
--------------
  Ensemble temperature                       ... 298.15 K
  Degeneracy of conformers                   ... 1
  *No rotamers will be included in Gconf

------------------------------------------------------------------------------
   Iter  MinTemp     MaxEn       GradComp    NOpt   NProcs    Output
------------------------------------------------------------------------------
List of participating nodes    ...  d.goat.0.hostnames

   7      363.00     45.00    1.00 : 0.50      21        1    d.goat.0.7.out
   6      725.99     45.00    1.00 : 0.50      21        1    d.goat.0.6.out
   0     2903.97     45.00    1.00 : 0.50      21        1    d.goat.0.0.out
   3      363.00     45.00    1.00 : 0.50      21        1    d.goat.0.3.out
   4     2903.97     45.00    1.00 : 0.50      21        1    d.goat.0.4.out
   5     1451.98     45.00    1.00 : 0.50      21        1    d.goat.0.5.out
   1     1451.98     45.00    1.00 : 0.50      21        1    d.goat.0.1.out
   2      725.99     45.00    1.00 : 0.50      21        1    d.goat.0.2.out

			     GOAT Global Iter 1
		Iter    Min En       Sconf       Gconf   
		        Hartree      cal/(molK)  kcal/mol
		=========================================

		   1    -30.790263   2.773       -0.510

List of participating nodes    ...  d.goat.1.hostnames

   7      363.00     45.00    1.00 : 0.50      21        1    d.goat.1.7.out
   0     2903.97     45.00    1.00 : 0.50      21        1    d.goat.1.0.out
   6      725.99     45.00    1.00 : 0.50      21        1    d.goat.1.6.out
   3      363.00     45.00    1.00 : 0.50      21        1    d.goat.1.3.out
   2      725.99     45.00    1.00 : 0.50      21        1    d.goat.1.2.out
   1     1451.98     45.00    1.00 : 0.50      21        1    d.goat.1.1.out
   4     2903.97     45.00    1.00 : 0.50      21        1    d.goat.1.4.out
   5     1451.98     45.00    1.00 : 0.50      21        1    d.goat.1.5.out

			     GOAT Global Iter 2
		Iter    Min En       Sconf       Gconf   
		        Hartree      cal/(molK)  kcal/mol
		=========================================

		   1    -30.790263   2.773       -0.510
		   2    -30.790263   4.426       -0.793

List of participating nodes    ...  d.goat.2.hostnames

   1     1451.98     45.00    1.00 : 0.50      21        1    d.goat.2.1.out
   0     2903.97     45.00    1.00 : 0.50      21        1    d.goat.2.0.out
   7      363.00     45.00    1.00 : 0.50      21        1    d.goat.2.7.out
   5     1451.98     45.00    1.00 : 0.50      21        1    d.goat.2.5.out
   3      363.00     45.00    1.00 : 0.50      21        1    d.goat.2.3.out
   2      725.99     45.00    1.00 : 0.50      21        1    d.goat.2.2.out
   6      725.99     45.00    1.00 : 0.50      21        1    d.goat.2.6.out
   4     2903.97     45.00    1.00 : 0.50      21        1    d.goat.2.4.out

			     GOAT Global Iter 3
		Iter    Min En       Sconf       Gconf   
		        Hartree      cal/(molK)  kcal/mol
		=========================================

		   1    -30.790263   2.773       -0.510
		   2    -30.790263   4.426       -0.793
		   3    -30.790264   4.641       -0.809

		Global minimum found!
		Writing structure to d.globalminimum.xyz

		# Final ensemble info #
		Conformer     Energy     Degen.   % total   % cumul.  
		              (kcal/mol)
		------------------------------------------------------
		        0     0.000	     1      25.53      25.53
		        1     0.251	     1      16.70      42.23
		        2     0.312	     1      15.08      57.30
		        3     0.441	     1      12.14      69.44
		        4     0.841	     1       6.18      75.62
		        5     0.943	     1       5.20      80.82
		        6     0.993	     1       4.77      85.59
		        7     1.124	     1       3.83      89.42
		        8     1.670	     1       1.52      90.94
		        9     1.792	     1       1.24      92.18
		       10     2.144	     1       0.68      92.87
		       11     2.237	     1       0.58      93.45
		       12     2.240	     1       0.58      94.03
		       13     2.248	     1       0.57      94.61
		       14     2.265	     1       0.56      95.16
		       15     2.267	     1       0.56      95.72
		       16     2.269	     1       0.55      96.28
		       17     2.273	     1       0.55      96.83
		       18     2.274	     1       0.55      97.38
		       19     2.450	     1       0.41      97.78
		       20     2.840	     1       0.21      97.99
		       21     2.841	     1       0.21      98.21
		       22     2.851	     1       0.21      98.41
		       23     2.860	     1       0.20      98.62
		       24     2.870	     1       0.20      98.82
		       25     2.881	     1       0.20      99.02
		       26     2.891	     1       0.19      99.21
		       27     2.932	     1       0.18      99.39
		       28     3.048	     1       0.15      99.54
		       29     3.065	     1       0.14      99.68
		       30     3.333	     1       0.09      99.78
		       31     3.482	     1       0.07      99.85
		       32     3.488	     1       0.07      99.92
		       33     3.762	     1       0.04      99.96
		       34     4.750	     1       0.01      99.97
		       35     4.762	     1       0.01      99.98
		       36     4.766	     1       0.01      99.99
		       37     5.089	     1       0.00      99.99
		       38     5.519	     1       0.00     100.00
		       39     5.539	     1       0.00     100.00
		       40     5.562	     1       0.00     100.00

		Conformers below 3 kcal/mol: 28
		Lowest energy conformer    : -30.790264 Eh
		Sconf at 298.15 K          :  4.64 cal/(molK)
		Gconf at 298.15 K          : -0.81 kcal/mol

		Writing final ensemble to d.finalensemble.xyz

--------------------------------
SUGGESTED CITATIONS FOR THIS RUN
--------------------------------

Below you find a list of papers that are relevant to this ORCA run
We neither can nor want to force you to cite these papers, but we appreciate if you do
You receive ORCA, which is the product of decades of hard work by many enthusiastic individuals, for free
The only thing we kindly ask in return is that you cite our papers,
We deeply appreciate it, if you show your appreciation for ORCA by not just citing the generic ORCA reference.

Please note that relegating all ORCA citations to the supporting information does *not* help us.
SI sections are not indexed - citations you put there will not count into any citation statistics
But we need these citations in order to attract the funding resources that allow us to do what we are doing

Therefore, if you are a happy ORCA user, please consider citing a few of the papers listed below in the main body of your paper

In addition to the list printed below, the program has created the file d.bibtex that contains the list in bibtex format
You can import this file easily into all common literature databanks and citation aid programs


List of essential papers. We consider these as the minimum necessary citations

  1. Bannwarth, C.; Ehlert, S.; Grimme, S.
     GFN2-xTB—An Accurate and Broadly Parametrized Self-Consistent Tight-Binding Quantum Chemical Method with Multipole Electrostatics and Density-Dependent Dispersion Contributions
     J. Chem. Theory Comput. 2019 15(3), 1652-1671
     doi.org/10.1021/acs.jctc.8b01176
  2. Neese, F.
     Software update: the ORCA program system, version 6.0
     WIRES Comput. Molec. Sci. 2025 15(1), e70019
     doi.org/10.1002/wcms.7019
  3. de Souza, B.
     GOAT: A Global Optimization Algorithm for Molecules and Atomic Clusters
     Angewandte Chemie 2025 64(18), e202500393
     doi.org/10.1002/anie.202500393

List of papers to cite with high priority. The work reported in these papers was absolutely
necessary for this run to complete.
Our perspective: the developers of density functionals and basis sets usually get cited in chemistry papers
Good! But without the algorithms to do something with them, the functionals or basis sets would not do anything.
Hence, in our opinion, the algorithm design and method developments papers are equally worthy of getting cited

  1. Bannwarth, C.; Caldeweyher, E.; Ehlert, S.; Hansen, A.; Pracht, P.; Seibert, J.; Spicher, S.; Grimme, S.
     Extended tight-binding quantum chemistry methods
     WIRES Comput. Molec. Sci. 2020 11(2), e1493
     doi.org/10.1002/wcms.1493

List of suggested additional citations. These are papers that are important in the 'surrounding' of 
of this run, or papers that preceded the highly important papers. If you like your results we are grateful for a citation.

  1. Neese, F.
     The ORCA program system
     WIRES Comput. Molec. Sci. 2012 2(1), 73-78
     doi.org/10.1002/wcms.81
  2. Neese, F.
     Software update: the ORCA program system, version 4.0
     WIRES Comput. Molec. Sci. 2018 8(1), 1-6
     doi.org/10.1002/wcms.1327
  3. Neese, F.; Wennmohs, F.; Becker, U.; Riplinger, C.
     The ORCA quantum chemistry program package
     J. Chem. Phys. 2020 152(22), 224108
     doi.org/10.1063/5.0004608
  4. Neese, F.
     Software update: The ORCA program system—Version 5.0
     WIRES Comput. Molec. Sci. 2022 12(1), e1606
     doi.org/10.1002/wcms.1606

List of optional additional citations

  1. Neese, F.
     Approximate second-order SCF convergence for spin unrestricted wavefunctions
     Chem. Phys. Lett. 2000 325(1-3), 93-98
     doi.org/10.1016/s0009-2614(00)00662-x

Timings for individual modules:

Sum of individual times          ...      158.736 sec (=   2.646 min)
Geometry relaxation              ...        0.030 sec (=   0.001 min)   0.0 %
GOAT                             ...      158.233 sec (=   2.637 min)  99.7 %
XTB module                       ...        0.473 sec (=   0.008 min)   0.3 %
                             ****ORCA TERMINATED NORMALLY****
TOTAL RUN TIME: 0 days 0 hours 2 minutes 39 seconds 842 msec
