
                                 *****************
                                 * O   R   C   A *
                                 *****************

                                            #,                                       
                                            ###                                      
                                            ####                                     
                                            #####                                    
                                            ######                                   
                                           ########,                                 
                                     ,,################,,,,,                         
                               ,,#################################,,                 
                          ,,##########################################,,             
                       ,#########################################, ''#####,          
                    ,#############################################,,   '####,        
                  ,##################################################,,,,####,       
                ,###########''''           ''''###############################       
              ,#####''   ,,,,##########,,,,          '''####'''          '####       
            ,##' ,,,,###########################,,,                        '##       
           ' ,,###''''                  '''############,,,                           
         ,,##''                                '''############,,,,        ,,,,,,###''
      ,#''                                            '''#######################'''  
     '                                                          ''''####''''         
             ,#######,   #######,   ,#######,      ##                                
            ,#'     '#,  ##    ##  ,#'     '#,    #''#        ,####,    ,#,          
            ##       ##  ##   ,#'  ##            #'  '#       #'       ,# #          
            ##       ##  #######   ##           ,######,      #####,      #          
            '#,     ,#'  ##    ##  '#,     ,#' ,#      #,     #,   #      #          
             '#######'   ##     ##  '#######'  #'      '#     '####' #    #          



                #########################################################
                #                        -***-                          #
                #          Department of theory and spectroscopy        #
                #                                                       #
                #                      Frank Neese                      #
                #                                                       #
                #     Directorship, Architecture, Infrastructure        #
                #                    SHARK, DRIVERS                     #
                #        Core code/Algorithms in most modules           #
                #                                                       #
                #        Max Planck Institute fuer Kohlenforschung      #
                #                Kaiser Wilhelm Platz 1                 #
                #                 D-45470 Muelheim/Ruhr                 #
                #                      Germany                          #
                #                                                       #
                #                  All rights reserved                  #
                #                        -***-                          #
                #########################################################


                         Program Version 6.1.0  -  RELEASE   -
                                (GIT: $679e74b$)
                          ($2025-06-10 18:02:51 +0200$)


 With contributions from (in alphabetic order):
[Max-Planck-Institut fuer Kohlenforschung]                               
  Daniel Aravena         : Magnetic Suceptibility                        
  Michael Atanasov       : Ab Initio Ligand Field Theory (pilot matlab implementation)
  Alexander A. Auer      : GIAO ZORA, VPT2 properties, NMR spectrum      
  Ute Becker             : All parallelization in ORCA, NUMFREQ, NUMCALC 
  Giovanni Bistoni       : ED, misc. LED, open-shell LED, HFLD           
  Dmytro Bykov           : pre 5.0 version of the SCF Hessian            
  Marcos Casanova-Páez   : Triplet and SCS-CIS(D). UHF-(DLPNO)-IP/EA/STEOM-CCSD. UHF-CVS-IP/STEOM-CCSD   
  Vijay G. Chilkuri      : MRCI spin determinant printing, contributions to CSF-ICE 
  Pauline Colinet        : FMM embedding                                 
  Dipayan Datta          : RHF DLPNO-CCSD density                        
  Achintya Kumar Dutta   : EOM-CC, STEOM-CC                              
  Nicolas Foglia         : Exact transition moments, OPA infrastructure, MCD improvements    
  Dmitry Ganyushin       : Spin-Orbit,Spin-Spin,Magnetic field MRCI      
  Miquel Garcia-Rates    : C-PCM and meta-GGA Hessian, CCSD/C-PCM, Gaussian charge scheme 
  Tiago L. C. Gouveia    : GS-ROHF, GS-ROCIS                             
  Yang Guo               : DLPNO-NEVPT2, F12-NEVPT2, CIM, IAO-localization        
  Andreas Hansen         : Spin unrestricted coupled pair/coupled cluster methods 
  Ingolf Harden          : AUTO-CI MPn and infrastructure                
  Benjamin Helmich-Paris : MC-RPA, TRAH-(SCF,CASSCF), AVAS, COSX integrals, SCF dyn. polar., MC-PDFT, srDFT 
  Lee Huntington         : MR-EOM, pCC                                   
  Robert Izsak           : Overlap fitted RIJCOSX, COSX-SCS-MP3, EOM     
  Riya Kayal             : Wick's Theorem for AUTO-CI, AUTO-CI UHF-CCSDT 
  Emily Kempfer          : AUTO-CI RHF CISDT and CCSDT, approximate NEVPT4
  Christian Kollmar      : KDIIS, OOCD, Brueckner-CCSD(T), CCSD density, CASPT2, CASPT2-K, improved NEVPT2 
  Axel Koslowski         : Symmetry handling                             
  Simone Kossmann        : meta-GGA functionals, TD-DFT gradient, OOMP2, (MP2 Hessian; deprecated post 5.0) 
  Lucas Lang             : DCDCAS, Hyperfine gauge corrections, ICE-SOC+SSC
  Marvin Lechner         : AUTO-CI (C++ implementation), FIC-MRCC        
  Spencer Leger          : CASSCF response                               
  Dagmar Lenk            : GEPOL surface, SMD, ORCA-2-JSON               
  Dimitrios Liakos       : Extrapolation schemes; Compound Job, Property file
  Dimitrios Manganas     : Further ROCIS development; embedding schemes. LFT, Crystal Embedding 
  Dimitrios Pantazis     : SARC Basis sets                               
  Anastasios Papadopoulos: AUTO-CI, single reference methods and gradients 
  Taras Petrenko         : pre 6.0 DFT Hessian and TD-DFT gradient,  ECA, NRVS 
  Petra Pikulova         : Analytic Raman intensities                    
  Peter Pinski           : DLPNO-MP2, DLPNO-MP2 Gradient                 
  Shashank Vittal Rao    : ES-AILFT, MagRelax                            
  Christoph Reimann      : Effective Core Potentials                     
  Marius Retegan         : Local ZFS, SOC                                
  Christoph Riplinger    : Optimizer, TS searches, QM/MM, DLPNO-CCSD(T), (RO)-DLPNO pert. Triples 
  Michael Roemelt        : Original ROCIS implementation, recursive CI coupling coefficients
  Masaaki Saitow         : Open-shell DLPNO-CCSD energy and density      
  Barbara Sandhoefer     : DKH picture change effects                    
  Yorick L. A. Schmerwitz: GMF and freeze-and-release deltaSCF, NEB S-IDPP initial path                    
  Kantharuban Sivalingam : CASSCF convergence/infrastructure, NEVPT2, NEVPT3, NEVPT4(SD), FIC-MRCI and CEPA variants
  Bernardo de Souza      : ESD, SOC TD-DFT                               
  Georgi L. Stoychev     : AutoAux, RI-MP2 NMR, DLPNO-MP2 response, X2C  
  Van Anh Tran           : RI-MP2 g-tensors                              
  Willem Van den Heuvel  : Paramagnetic NMR                              
  Zikuan Wang            : NOTCH, Electric field optimization            
  Frank Wennmohs         : Technical directorship and infrastructure     
  Hang Xu                : AUTO-CI-Response properties                   
                                                                         
[FACCTs GmbH]                                                            
  Markus Bursch, Nicolas Foglia, Miquel Garcia-Rates, Ingolf Harden, Hagen Neugebauer, Anastasios Papadopoulos, 
  Christoph Riplinger, Bernardo de Souza, Georgi L. Stoychev                                                    
                                                                 
  APM, various basis sets, CI-OPT, improved COSX, DLPNO-Multilevel,           
  DOCKER, DRACO, updates on ESD, Fragmentator, GOAT, IRC, LR-CPCM, L-BFGS, MBIS, meta-GGA TD-DFT gradient, ML-optimized integration grids, 
  MM, NACMEs, nearIR, NEB, NEB-TS, NL-DFT gradient (VV10), 2- and 3-layer-ONIOM, interface openCOSMO-RS, QMMM,   
  Crystal-QMMM, RESP, rigid body optimization, SF, symmetry and pop. for TD-DFT, various functionals, SOLVATOR                                   
                                                                         
[Other institutions]                                                     
  V. Asgeirsson          : NEB                                           
  Christoph Bannwarth    : sTDA-DFT, sTD-DFT, PBEh-3c, B97-3c, D3        
  Giovanni Bistoni       : ETS/NOCV, ADLD/ADEX, COVALED                  
  Martin Brehm           : Molecular dynamics                            
  Ronald Cardenas        : ETS/NOCV                                      
  Martina Colucci        : COVALED                                       
  Sebastian Ehlert       : rSCAN, r2SCAN, r2SCAN-3c, D4, dhf basis sets  
  Marvin Friede          : D4 for Fr, Ra, Ac-Lr                          
  Lars Goerigk           : TD-DFT with DH, B97 family of functionals     
  Stefan Grimme          : VdW corrections, initial TS optimization, DFT functionals, gCP, sTDA/sTD-DF 
  Waldemar Hujo          : DFT-NL                                        
  H. Jonsson             : NEB                                           
  Holger Kruse           : gCP                                           
  Marcel Mueller         : wB97X-3c, vDZP basis set                      
  Hagen Neugebauer       : wr2SCAN, Native XTB                           
  Gianluca Regni         : ADLD/ADEX                                     
  Tobias Risthaus        : pre 6.0 range-separated hybrid DFT and stability analysis
  Lukas Wittmann         : regularized MP2, r2SCAN double-hybrids, wr2SCAN        
                                                                         
We gratefully acknowledge several colleagues who have allowed us to      
interface, adapt or use parts of their codes:                            
  Ed Valeev, F. Pavosevic, A. Kumar             : LibInt (2-el integral package), F12 methods 
  Garnet Chan, S. Sharma, J. Yang, R. Olivares  : DMRG                   
  Ulf Ekstrom                                   : XCFun DFT Library      
  Mihaly Kallay                                 : mrcc  (arbitrary order and MRCC methods)
  Frank Weinhold                                : gennbo (NPA and NBO analysis)           
  Simon Mueller                                 : openCOSMO-RS                            
  Christopher J. Cramer and Donald G. Truhlar   : smd solvation model                     
  S Lehtola, MJT Oliveira, MAL Marques          : LibXC Library                           
  Liviu Ungur et al                             : ANISO software                          


 Your calculation uses the libint2 library for the computation of 2-el integrals
 For citations please refer to: http://libint.valeyev.net

 Your ORCA version has been built with support for libXC version: 7.0.0
 For citations please refer to: https://libxc.gitlab.io

 This ORCA versions uses:
   CBLAS   interface :  Fast vector & matrix operations
   LAPACKE interface :  Fast linear algebra routines
   SCALAPACK package :  Parallel linear algebra routines
   Shared memory     :  Shared parallel matrices
   BLAS/LAPACK       :  OpenBLAS 0.3.29  USE64BITINT DYNAMIC_ARCH NO_AFFINITY Haswell SINGLE_THREADED
        Core in use  :  Haswell
   Copyright (c) 2011-2014, The OpenBLAS Project


  ***********************************
  * Starting time: Sun Aug 31 12:25:23 2025
  * Host name:     chemlab03
  * Process ID:    90830
  * Working dir.:  /home/vivek/mm-project/vivek/xtb-goat/MP2-opt/a/1
  ***********************************



***************************************
The coordinates will be read from file: /home/vivek/mm-project/vivek/xtb-goat/xtb-goat/a/A_CONF/1.xyz
***************************************


================================================================================

----- Orbital basis set information -----
Your calculation utilizes the basis: 6-31G**
   H-He, Li-Ne : W. J. Hehre, R. Ditchfield and J.A. Pople, J. Chem. Phys. 56, 2257 (1972).
                 Note: He and Ne are unpublished basis sets taken from the Gaussian program.
                 Note: Li and B from J. D. Dill and J. A. Pople, J. Chem. Phys. 62, 2921 (1975).
   Na - Ar     : M. M. Francl, W. J. Pietro, W. J. Hehre, J. S. Binkley, M. S. Gordon, 
                 D. J. DeFrees and J. A. Pople, J. Chem. Phys. 77, 3654 (1982).
   K - Zn      : V. A. Rassolov, J. A. Pople, M. A. Ratner, and T. L. Windus, J. Chem. Phys. 109, 1223 (1998).

================================================================================
                                        WARNINGS
                       Please study these warnings very carefully!
================================================================================

WARNING: Old DensityContainer found on disk!
         Will remove this file - 
         If you want to keep old densities, please start your calculation with a different basename. 


WARNING: The frozen-core approximation for MP2-gradient calculations is turned on by default.

WARNING: Geometry Optimization
  ===> : Switching off AutoStart
         For restart on a previous wavefunction, please use MOREAD

WARNING: Post HF methods need fully converged wavefunctions
  ===> : Setting SCFConvForced true
         You can overwrite this default with %scf ConvForced false 


================================================================================
                                       INPUT FILE
================================================================================
NAME = 1.inp
|  1> ! MP2 6-31G** opt
|  2> 
|  3> * xyzfile 0 1 /home/vivek/mm-project/vivek/xtb-goat/xtb-goat/a/A_CONF/1.xyz
|  4> 
|  5>                          ****END OF INPUT****
================================================================================

                       *****************************
                       * Geometry Optimization Run *
                       *****************************

Geometry optimization settings:
Update method            Update   .... BFGS
Choice of coordinates    CoordSys .... (2022) Redundant Internals
Initial Hessian          InHess   .... Almloef's Model
Max. no of cycles        MaxIter  .... 50

Convergence Tolerances:
Energy Change            TolE     ....  5.0000e-06 Eh
Max. Gradient            TolMAXG  ....  3.0000e-04 Eh/bohr
RMS Gradient             TolRMSG  ....  1.0000e-04 Eh/bohr
Max. Displacement        TolMAXD  ....  4.0000e-03 bohr
RMS Displacement         TolRMSD  ....  2.0000e-03 bohr
Strict Convergence                .... False

------------------------------------------------------------------------------
                        ORCA OPTIMIZATION COORDINATE SETUP
------------------------------------------------------------------------------

The optimization will be done in redundant internal coordinates (2022)
Making redundant internal coordinates   ...  (2022 redundants) done
Evaluating the initial hessian          ...  (Almloef) done
Evaluating the coordinates              ...  done
Calculating the B-matrix                .... done
Calculating the G-matrix                .... done
The number of degrees of freedom        ....   49

    -----------------------------------------------------------------
                    Redundant Internal Coordinates


    -----------------------------------------------------------------
         Definition                    Initial Value    Approx d2E/dq
    -----------------------------------------------------------------
      1. B(O   1,C   0)                  1.2016         1.118018   
      2. B(O   2,C   0)                  1.3414         0.669043   
      3. B(C   3,C   0)                  1.5270         0.377712   
      4. B(H   4,O   2)                  0.9699         0.501396   
      5. B(C   5,C   3)                  1.5324         0.370316   
      6. B(H   6,C   5)                  1.0857         0.365816   
      7. B(N   7,C   3)                  1.4473         0.453333   
      8. B(H   8,C   5)                  1.0861         0.365257   
      9. B(H   9,C   5)                  1.0881         0.362626   
     10. B(H  10,C   3)                  1.0969         0.351026   
     11. B(H  11,N   7)                  1.0146         0.425468   
     12. B(H  12,N   7)                  1.0138         0.426713   
     13. A(O   1,C   0,C   3)          124.9530         0.438586   
     14. A(O   2,C   0,C   3)          112.6347         0.400231   
     15. A(O   1,C   0,O   2)          122.4078         0.483606   
     16. A(C   0,O   2,H   4)          110.2455         0.372659   
     17. A(C   0,C   3,H  10)          106.9148         0.323547   
     18. A(C   0,C   3,N   7)          115.2244         0.373986   
     19. A(C   0,C   3,C   5)          107.7372         0.363491   
     20. A(C   5,C   3,N   7)          109.8597         0.372713   
     21. A(N   7,C   3,H  10)          108.1855         0.331427   
     22. A(C   5,C   3,H  10)          108.7322         0.322500   
     23. A(H   8,C   5,H   9)          109.0829         0.291811   
     24. A(H   6,C   5,H   9)          108.7151         0.291881   
     25. A(C   3,C   5,H   6)          109.1292         0.324691   
     26. A(C   3,C   5,H   9)          110.1924         0.324224   
     27. A(H   6,C   5,H   8)          109.6284         0.292213   
     28. A(C   3,C   5,H   8)          110.0713         0.324610   
     29. A(H  11,N   7,H  12)          107.5957         0.301768   
     30. A(C   3,N   7,H  12)          110.8439         0.339428   
     31. A(C   3,N   7,H  11)          110.1783         0.339262   
     32. D(H   4,O   2,C   0,O   1)     -0.5652         0.033243   
     33. D(H   4,O   2,C   0,C   3)    178.6924         0.033243   
     34. D(N   7,C   3,C   0,O   1)   -167.0545         0.010654   
     35. D(N   7,C   3,C   0,O   2)     13.7102         0.010654   
     36. D(C   5,C   3,C   0,O   2)   -109.3109         0.010654   
     37. D(H  10,C   3,C   0,O   1)    -46.7994         0.010654   
     38. D(C   5,C   3,C   0,O   1)     69.9244         0.010654   
     39. D(H   8,C   5,C   3,H  10)     58.7945         0.010961   
     40. D(H   8,C   5,C   3,N   7)    177.0156         0.010961   
     41. D(H   8,C   5,C   3,C   0)    -56.7380         0.010961   
     42. D(H   6,C   5,C   3,H  10)    -61.5550         0.010961   
     43. D(H   6,C   5,C   3,N   7)     56.6661         0.010961   
     44. D(H   6,C   5,C   3,C   0)   -177.0875         0.010961   
     45. D(H  11,N   7,C   3,C   5)     61.1679         0.017535   
     46. D(H  11,N   7,C   3,C   0)    -60.7170         0.017535   
     47. D(H  12,N   7,C   3,C   5)   -179.8497         0.017535   
     48. D(H  12,N   7,C   3,C   0)     58.2654         0.017535   
     49. D(H  11,N   7,C   3,H  10)    179.7266         0.017535   
    -----------------------------------------------------------------

Number of atoms                         .... 13
Number of degrees of freedom            .... 49


         *************************************************************
         *                GEOMETRY OPTIMIZATION CYCLE   1            *
         *************************************************************
---------------------------------
CARTESIAN COORDINATES (ANGSTROEM)
---------------------------------
  C     -4.774106    0.286799   -1.677803
  O     -4.789824    1.418438   -1.274071
  O     -3.635029   -0.350095   -1.987892
  C     -6.012271   -0.575345   -1.913156
  H     -2.874221    0.234318   -1.845321
  C     -6.757267   -0.001936   -3.123274
  H     -7.670608   -0.567741   -3.279627
  N     -5.752873   -1.984435   -2.117921
  H     -7.000129    1.042556   -2.950845
  H     -6.140404   -0.081030   -4.016123
  H     -6.648129   -0.469741   -1.025561
  H     -5.168878   -2.117394   -2.936866
  H     -5.261982   -2.379965   -1.323963

----------------------------
CARTESIAN COORDINATES (A.U.)
----------------------------
  NO LB      ZA    FRAG     MASS         X           Y           Z
   0 C     6.0000    0    12.011   -9.021753    0.541971   -3.170588
   1 O     8.0000    0    15.999   -9.051457    2.680459   -2.407646
   2 O     8.0000    0    15.999   -6.869209   -0.661584   -3.756572
   3 C     6.0000    0    12.011  -11.361545   -1.087245   -3.615341
   4 H     1.0000    0     1.008   -5.431490    0.442798   -3.487150
   5 C     6.0000    0    12.011  -12.769385   -0.003659   -5.902132
   6 H     1.0000    0     1.008  -14.495349   -1.072874   -6.197597
   7 N     7.0000    0    14.007  -10.871354   -3.750039   -4.002290
   8 H     1.0000    0     1.008  -13.228327    1.970145   -5.576289
   9 H     1.0000    0     1.008  -11.603682   -0.153124   -7.589372
  10 H     1.0000    0     1.008  -12.563143   -0.887682   -1.938030
  11 H     1.0000    0     1.008   -9.767764   -4.001295   -5.549873
  12 H     1.0000    0     1.008   -9.943705   -4.497482   -2.501928

--------------------------------
INTERNAL COORDINATES (ANGSTROEM)
--------------------------------
 C      0   0   0     0.000000000000     0.00000000     0.00000000
 O      1   0   0     1.201604375585     0.00000000     0.00000000
 O      1   2   0     1.341374740331   122.40776840     0.00000000
 C      1   2   3     1.527001870354   124.95297509   180.83598259
 H      3   1   2     0.969894414252   110.24552991   359.43477244
 C      4   1   2     1.532384683089   107.73723676    69.92439090
 H      6   4   1     1.085713011201   109.12923124   182.91249506
 N      4   1   2     1.447325014293   115.22442030   192.94551066
 H      6   4   1     1.086129213180   110.07131932   303.26203341
 H      6   4   1     1.088097415801   110.19244117    63.60994580
 H      4   1   2     1.096946973714   106.91483265   313.20062247
 H      8   4   1     1.014593169825   110.17825276   299.28299166
 H      8   4   1     1.013797773462   110.84394607    58.26542045

---------------------------
INTERNAL COORDINATES (A.U.)
---------------------------
 C      0   0   0     0.000000000000     0.00000000     0.00000000
 O      1   0   0     2.270703191176     0.00000000     0.00000000
 O      1   2   0     2.534830902185   122.40776840     0.00000000
 C      1   2   3     2.885615340954   124.95297509   180.83598259
 H      3   1   2     1.832834821757   110.24552991   359.43477244
 C      4   1   2     2.895787382854   107.73723676    69.92439090
 H      6   4   1     2.051700251205   109.12923124   182.91249506
 N      4   1   2     2.735047903787   115.22442030   192.94551066
 H      6   4   1     2.052486758961   110.07131932   303.26203341
 H      6   4   1     2.056206122892   110.19244117    63.60994580
 H      4   1   2     2.072929363754   106.91483265   313.20062247
 H      8   4   1     1.917303228317   110.17825276   299.28299166
 H      8   4   1     1.915800147022   110.84394607    58.26542045

---------------------
BASIS SET INFORMATION
---------------------
There are 4 groups of distinct atoms

 Group   1 Type C   : 10s4p1d contracted to 3s2p1d pattern {631/31/1}
 Group   2 Type O   : 10s4p1d contracted to 3s2p1d pattern {631/31/1}
 Group   3 Type H   : 4s1p contracted to 2s1p pattern {31/1}
 Group   4 Type N   : 10s4p1d contracted to 3s2p1d pattern {631/31/1}

Atom   0C    basis set group =>   1
Atom   1O    basis set group =>   2
Atom   2O    basis set group =>   2
Atom   3C    basis set group =>   1
Atom   4H    basis set group =>   3
Atom   5C    basis set group =>   1
Atom   6H    basis set group =>   3
Atom   7N    basis set group =>   4
Atom   8H    basis set group =>   3
Atom   9H    basis set group =>   3
Atom  10H    basis set group =>   3
Atom  11H    basis set group =>   3
Atom  12H    basis set group =>   3
------------------------------------------------------------------------------
                             ORCA STARTUP CALCULATIONS
------------------------------------------------------------------------------
------------------------------------------------------------------------------
                   ___                                                        
                  /   \      - P O W E R E D   B Y -                         
                 /     \                                                     
                 |  |  |   _    _      __       _____    __    __             
                 |  |  |  | |  | |    /  \     |  _  \  |  |  /  |          
                  \  \/   | |  | |   /    \    | | | |  |  | /  /          
                 / \  \   | |__| |  /  /\  \   | |_| |  |  |/  /          
                |  |  |   |  __  | /  /__\  \  |    /   |      \           
                |  |  |   | |  | | |   __   |  |    \   |  |\   \          
                \     /   | |  | | |  |  |  |  | |\  \  |  | \   \       
                 \___/    |_|  |_| |__|  |__|  |_| \__\ |__|  \__/        
                                                                              
                      - O R C A' S   B I G   F R I E N D -                    
                                      &                                       
                       - I N T E G R A L  F E E D E R -                       
                                                                              
 v1 FN, 2020, v2 2021, v3 2022-2024                                           
------------------------------------------------------------------------------


----------------------
SHARK INTEGRAL PACKAGE
----------------------

Number of atoms                             ...     13
Number of basis functions                   ...    119
Number of shells                            ...     57
Maximum angular momentum                    ...      2
Integral batch strategy                     ... SHARK/LIBINT Hybrid
RI-J (if used) integral strategy            ... SPLIT-RIJ (Revised 2003 algorithm where possible)
Printlevel                                  ...      1
Contraction scheme used                     ... SEGMENTED contraction
Prescreening option                         ... SCHWARTZ
   Thresh                                   ... 2.500e-11
   Tcut                                     ... 2.500e-12
   Tpresel                                  ... 2.500e-12 
Coulomb Range Separation                    ... NOT USED
Exchange Range Separation                   ... NOT USED
Multipole approximations                    ... NOT USED
Finite Nucleus Model                        ... NOT USED
CABS basis                                  ... NOT available
Auxiliary Coulomb fitting basis             ... NOT available
Auxiliary J/K fitting basis                 ... NOT available
Auxiliary Correlation fitting basis         ... NOT available
Auxiliary 'external' fitting basis          ... NOT available

Checking pre-screening integrals            ... done (  0.0 sec) Dimension = 57
   => SHARK Basis and OBASIS are compatible. Storing Pre-screening
Shell pair information
Shell pair cut-off parameter TPreSel        ...   2.5e-12
Total number of shell pairs                 ...      1653
Shell pairs after pre-screening             ...      1603
Total number of primitive shell pairs       ...      8022
Primitive shell pairs kept                  ...      5583
          la=0 lb=0:    507 shell pairs
          la=1 lb=0:    586 shell pairs
          la=1 lb=1:    185 shell pairs
          la=2 lb=0:    190 shell pairs
          la=2 lb=1:    114 shell pairs
          la=2 lb=2:     21 shell pairs

Checking whether 4 symmetric matrices of dimension 119 fit in memory
:Max Core in MB      =   4096.00
 MB in use           =      3.43
 MB left             =   4092.57
 MB needed           =      0.22
 Data fit in memory  = YES
Calculating Nuclear repulsion               ... done (  0.0 sec) ENN=    250.507373616647 Eh

Diagonalization of the overlap matrix:
Smallest eigenvalue                        ... 3.518e-03
Time for diagonalization                   ...    0.001 sec
Threshold for overlap eigenvalues          ... 1.000e-07
Number of eigenvalues below threshold      ... 0
Time for construction of square roots      ...    0.000 sec
Total time needed                          ...    0.001 sec

-------------------
DFT GRID GENERATION
-------------------

General Integration Accuracy     IntAcc      ... 4.388
Radial Grid Type                 RadialGrid  ... OptM3 with GC (2021)
Angular Grid (max. ang.)         AngularGrid ... 4 (Lebedev-302)
Angular grid pruning method      GridPruning ... 4 (adaptive)
Weight generation scheme         WeightScheme... mBecke (2022)
Basis function cutoff            BFCut       ... 1.0000e-11
Integration weight cutoff        WCut        ... 1.0000e-14
Partially contracted basis set               ... off
Rotationally invariant grid construction     ... off
Angular grids for H and He will be reduced by one unit

Total number of grid points                  ...    58952
Total number of batches                      ...      927
Average number of points per batch           ...       63
Average number of grid points per atom       ...     4535
Grids setup in   0.2 sec
Initializing property integral containers    ... done (  0.0 sec)

SHARK setup successfully completed in   0.2 seconds

Maximum memory used throughout the entire STARTUP-calculation: 22.7 MB
-------------------------------------------------------------------------------
                                 ORCA GUESS
                   Start orbitals & Density for SCF / CASSCF
-------------------------------------------------------------------------------

------------
SCF SETTINGS
------------
Hamiltonian:
 Ab initio Hamiltonian  Method          .... Hartree-Fock(GTOs)


General Settings:
 Integral files         IntName         .... 1
 Hartree-Fock type      HFTyp           .... RHF
 Total Charge           Charge          ....    0
 Multiplicity           Mult            ....    1
 Number of Electrons    NEL             ....   48
 Basis Dimension        Dim             ....  119
 Nuclear Repulsion      ENuc            ....    250.5073736166 Eh

Convergence Acceleration:
 AO-DIIS                CNVDIIS         .... on
   Start iteration      DIISMaxIt       ....    12
   Startup error        DIISStart       ....  0.200000
   # of expansion vecs  DIISMaxEq       ....     5
   Bias factor          DIISBfac        ....   1.050
   Max. coefficient     DIISMaxC        ....  10.000
 MO-DIIS                CNVKDIIS        .... off
 Trust-Rad. Augm. Hess. CNVTRAH         .... auto
   Auto Start mean grad. ratio tolernc. ....  1.125000
   Auto Start start iteration           ....    50
   Auto Start num. interpolation iter.  ....    10
   Max. Number of Micro iterations      ....    24
   Max. Number of Macro iterations      .... Maxiter - #DIIS iter
   Number of Davidson start vectors     ....     2
   Converg. threshold    (grad. norm)   ....   1.000e-05
   Grad. Scal. Fac. for Micro threshold ....   0.100
   Minimum threshold for Micro iter.    ....   1.000e-02
   NR start threshold (gradient norm)   ....   1.000e-04
   Initial trust radius                 ....   0.400
   Minimum AH scaling param. (alpha)    ....   1.000
   Maximum AH scaling param. (alpha)    .... 1000.000
   Quad. conv. algorithm                .... NR
   White noise on init. David. guess    .... on
   Maximum white noise                  ....   0.010
   Pseudo random numbers                .... off
   Inactive MOs                         .... canonical
   Orbital update algorithm             .... Taylor
   Preconditioner                       .... Diag
   Full preconditioner red. dimension   ....   250
 SOSCF                 CNVSOSCF           .... on
   Start iteration     SOSCFMaxIt         ....   150
   Startup grad/error  SOSCFStart         ....  0.003300
   Hessian update      SOSCFHessUp        .... L-BFGS
   Autom. constraints  SOSCFAutoConstrain .... off
 Level Shifting         CNVShift        .... on
   Level shift para.    LevelShift      ....    0.2500
   Turn off err/grad.   ShiftErr        ....    0.0010
 Zerner damping         CNVZerner       .... off
 Static damping         CNVDamp         .... on
   Fraction old density DampFac         ....    0.7000
   Max. Damping (<1)    DampMax         ....    0.9800
   Min. Damping (>=0)   DampMin         ....    0.0000
   Turn off err/grad.   DampErr         ....    0.1000

SCF Procedure:
 Maximum # iterations   MaxIter         ....   125
 SCF integral mode      SCFMode         .... Direct
   Integral package                     .... SHARK and LIBINT hybrid scheme
 Reset frequency        DirectResetFreq ....    20
 Integral Threshold     Thresh          ....  2.500e-11 Eh
 Primitive CutOff       TCut            ....  2.500e-12 Eh

Convergence Tolerance:
 Convergence Check Mode ConvCheckMode   .... Total+1el-Energy
 Convergence forced     ConvForced      .... 1
 Energy Change          TolE            ....  1.000e-08 Eh
 1-El. energy change                    ....  1.000e-05 Eh
 Orbital Gradient       TolG            ....  1.000e-05
 Orbital Rotation angle TolX            ....  1.000e-05
 DIIS Error             TolErr          ....  5.000e-07

------------------------------
INITIAL GUESS: MODEL POTENTIAL
------------------------------
Loading Hartree-Fock densities                     ... done
Calculating cut-offs                               ... done
Initializing the effective Hamiltonian             ... done
Setting up the integral package (SHARK)            ... done
Starting the Coulomb interaction                   ... done (   0.0 sec)
Making the grid                                    ... done (   0.0 sec)
Mapping shells                                     ... done
Starting the XC term evaluation                    ... done (   0.0 sec)
Transforming the Hamiltonian                       ... done (   0.0 sec)
Diagonalizing the Hamiltonian                      ... done (   0.0 sec)
Back transforming the eigenvectors                 ... done (   0.0 sec)
Now organizing SCF variables                       ... done
                      ------------------
                      INITIAL GUESS DONE (   0.1 sec)
                      ------------------
             **** ENERGY FILE WAS UPDATED (1.en.tmp) ****
Finished Guess after   0.1 sec
Maximum memory used throughout the entire GUESS-calculation: 7.4 MB

-------------------------------------------------------------------------------------------
                                      ORCA LEAN-SCF
                              memory conserving SCF solver
-------------------------------------------------------------------------------------------

----------------------------------------D-I-I-S--------------------------------------------
Iteration    Energy (Eh)           Delta-E    RMSDP     MaxDP     DIISErr   Damp  Time(sec)
-------------------------------------------------------------------------------------------
               ***  Starting incremental Fock matrix formation  ***
    1    -321.5862856311329097     0.00e+00  3.21e-03  6.64e-02  2.63e-01  0.700   0.5
    2    -321.6942921797718782    -1.08e-01  2.37e-03  4.76e-02  1.65e-01  0.700   0.5
                               ***Turning on AO-DIIS***
    3    -321.7566178184931687    -6.23e-02  1.25e-03  2.21e-02  9.45e-02  0.700   0.5
    4    -321.7956372624458936    -3.90e-02  2.80e-03  4.75e-02  6.40e-02  0.000   0.5
    5    -321.8819270978484610    -8.63e-02  3.50e-04  6.73e-03  6.23e-03  0.000   0.5
    6    -321.8822875436626418    -3.60e-04  1.78e-04  3.37e-03  3.49e-03  0.000   0.4
                              *** Initializing SOSCF ***
---------------------------------------S-O-S-C-F--------------------------------------
Iteration    Energy (Eh)           Delta-E    RMSDP     MaxDP     MaxGrad    Time(sec)
--------------------------------------------------------------------------------------
    7    -321.8823726082702024    -8.51e-05  1.09e-04  2.47e-03  2.12e-03     0.4
               *** Restarting incremental Fock matrix formation ***
    8    -321.8824008257104197    -2.82e-05  5.51e-05  1.00e-03  7.29e-04     0.5
    9    -321.8824075393531530    -6.71e-06  6.15e-05  1.42e-03  4.47e-04     0.4
   10    -321.8824101227388610    -2.58e-06  1.04e-05  2.52e-04  1.43e-04     0.4
   11    -321.8824103186369712    -1.96e-07  3.84e-06  9.21e-05  4.68e-05     0.4
   12    -321.8824103524931388    -3.39e-08  1.00e-06  2.49e-05  1.25e-05     0.4
   13    -321.8824103549020492    -2.41e-09  5.12e-07  9.40e-06  2.71e-06     0.3
                 **** Energy Check signals convergence ****

               *****************************************************
               *                     SUCCESS                       *
               *           SCF CONVERGED AFTER  13 CYCLES          *
               *****************************************************

             **** ENERGY FILE WAS UPDATED (1.en.tmp) ****

----------------
TOTAL SCF ENERGY
----------------

Total Energy       :       -321.88241035533042 Eh           -8758.86568 eV

Components:
Nuclear Repulsion  :        250.50737361664747 Eh            6816.65219 eV
Electronic Energy  :       -572.38978397197786 Eh          -15575.51787 eV
One Electron Energy:       -936.42123218035465 Eh          -25481.31717 eV
Two Electron Energy:        364.03144820837679 Eh            9905.79931 eV

Virial components:
Potential Energy   :       -643.34380502205659 Eh          -17506.27494 eV
Kinetic Energy     :        321.46139466672616 Eh            8747.40926 eV
Virial Ratio       :          2.00130969284520

---------------
SCF CONVERGENCE
---------------

  Last Energy change         ...    2.4089e-09  Tolerance :   1.0000e-08
  Last MAX-Density change    ...    9.3963e-06  Tolerance :   1.0000e-07
  Last RMS-Density change    ...    5.1235e-07  Tolerance :   5.0000e-09
  Last DIIS Error            ...    2.1219e-03  Tolerance :   5.0000e-07
  Last Orbital Gradient      ...    2.7098e-06  Tolerance :   1.0000e-05
  Last Orbital Rotation      ...    7.1278e-06  Tolerance :   1.0000e-05


----------------
ORBITAL ENERGIES
----------------

  NO   OCC          E(Eh)            E(eV) 
   0   2.0000     -20.619599      -561.0878 
   1   2.0000     -20.551592      -559.2372 
   2   2.0000     -15.549954      -423.1357 
   3   2.0000     -11.382627      -309.7370 
   4   2.0000     -11.276495      -306.8490 
   5   2.0000     -11.226044      -305.4762 
   6   2.0000      -1.468931       -39.9716 
   7   2.0000      -1.361448       -37.0469 
   8   2.0000      -1.200280       -32.6613 
   9   2.0000      -1.016227       -27.6529 
  10   2.0000      -0.904737       -24.6191 
  11   2.0000      -0.809714       -22.0334 
  12   2.0000      -0.703239       -19.1361 
  13   2.0000      -0.693672       -18.8758 
  14   2.0000      -0.679929       -18.5018 
  15   2.0000      -0.627137       -17.0653 
  16   2.0000      -0.598021       -16.2730 
  17   2.0000      -0.594459       -16.1760 
  18   2.0000      -0.538295       -14.6477 
  19   2.0000      -0.524317       -14.2674 
  20   2.0000      -0.513606       -13.9759 
  21   2.0000      -0.476137       -12.9563 
  22   2.0000      -0.470879       -12.8133 
  23   2.0000      -0.391829       -10.6622 
  24   0.0000       0.181634         4.9425 
  25   0.0000       0.209699         5.7062 
  26   0.0000       0.245470         6.6796 
  27   0.0000       0.273138         7.4325 
  28   0.0000       0.287083         7.8119 
  29   0.0000       0.321192         8.7401 
  30   0.0000       0.328776         8.9465 
  31   0.0000       0.338185         9.2025 
  32   0.0000       0.395771        10.7695 
  33   0.0000       0.410410        11.1678 
  34   0.0000       0.452701        12.3186 
*Only the first 10 virtual orbitals were printed.

                    ********************************
                    * MULLIKEN POPULATION ANALYSIS *
                    ********************************

-----------------------
MULLIKEN ATOMIC CHARGES
-----------------------
   0 C :    0.787536
   1 O :   -0.583831
   2 O :   -0.643175
   3 C :   -0.042996
   4 H :    0.371836
   5 C :   -0.336058
   6 H :    0.145706
   7 N :   -0.677708
   8 H :    0.146535
   9 H :    0.115057
  10 H :    0.166463
  11 H :    0.275925
  12 H :    0.274710
Sum of atomic charges:    0.0000000

--------------------------------
MULLIKEN REDUCED ORBITAL CHARGES
--------------------------------
  0 C s       :     2.956515  s :     2.956515
      pz      :     0.634112  p :     2.109922
      px      :     0.736091
      py      :     0.739720
      dz2     :     0.014489  d :     0.146027
      dxz     :     0.017955
      dyz     :     0.024040
      dx2y2   :     0.032743
      dxy     :     0.056800

  1 O s       :     3.871814  s :     3.871814
      pz      :     1.464617  p :     4.679233
      px      :     1.838872
      py      :     1.375744
      dz2     :     0.005134  d :     0.032785
      dxz     :     0.000827
      dyz     :     0.011653
      dx2y2   :     0.009039
      dxy     :     0.006131

  2 O s       :     3.834097  s :     3.834097
      pz      :     1.828321  p :     4.783763
      px      :     1.275315
      py      :     1.680128
      dz2     :     0.003496  d :     0.025315
      dxz     :     0.003118
      dyz     :     0.003177
      dx2y2   :     0.002471
      dxy     :     0.013053

  3 C s       :     3.213819  s :     3.213819
      pz      :     1.069243  p :     2.758402
      px      :     0.925799
      py      :     0.763360
      dz2     :     0.013522  d :     0.070775
      dxz     :     0.011987
      dyz     :     0.009600
      dx2y2   :     0.014696
      dxy     :     0.020971

  4 H s       :     0.586683  s :     0.586683
      pz      :     0.008878  p :     0.041481
      px      :     0.018888
      py      :     0.013715

  5 C s       :     3.259039  s :     3.259039
      pz      :     0.945176  p :     3.035802
      px      :     1.034539
      py      :     1.056088
      dz2     :     0.009516  d :     0.041217
      dxz     :     0.011839
      dyz     :     0.003907
      dx2y2   :     0.008258
      dxy     :     0.007697

  6 H s       :     0.841530  s :     0.841530
      pz      :     0.001903  p :     0.012764
      px      :     0.006966
      py      :     0.003895

  7 N s       :     3.597256  s :     3.597256
      pz      :     1.192633  p :     4.046113
      px      :     1.626407
      py      :     1.227073
      dz2     :     0.004325  d :     0.034339
      dxz     :     0.013791
      dyz     :     0.004197
      dx2y2   :     0.009377
      dxy     :     0.002649

  8 H s       :     0.840653  s :     0.840653
      pz      :     0.001955  p :     0.012813
      px      :     0.002077
      py      :     0.008781

  9 H s       :     0.872226  s :     0.872226
      pz      :     0.006871  p :     0.012717
      px      :     0.003929
      py      :     0.001917

 10 H s       :     0.821332  s :     0.821332
      pz      :     0.006629  p :     0.012205
      px      :     0.004445
      py      :     0.001130

 11 H s       :     0.697942  s :     0.697942
      pz      :     0.012112  p :     0.026133
      px      :     0.009484
      py      :     0.004537

 12 H s       :     0.699167  s :     0.699167
      pz      :     0.011003  p :     0.026124
      px      :     0.008383
      py      :     0.006737



                     *******************************
                     * LOEWDIN POPULATION ANALYSIS *
                     *******************************

----------------------
LOEWDIN ATOMIC CHARGES
----------------------
   0 C :    0.229812
   1 O :   -0.309159
   2 O :   -0.216623
   3 C :   -0.025906
   4 H :    0.199954
   5 C :   -0.169304
   6 H :    0.078861
   7 N :   -0.278622
   8 H :    0.079478
   9 H :    0.065271
  10 H :    0.086287
  11 H :    0.130387
  12 H :    0.129562

-------------------------------
LOEWDIN REDUCED ORBITAL CHARGES
-------------------------------
  0 C s       :     2.852680  s :     2.852680
      pz      :     0.696681  p :     2.601609
      px      :     0.922217
      py      :     0.982710
      dz2     :     0.029270  d :     0.315899
      dxz     :     0.038118
      dyz     :     0.049998
      dx2y2   :     0.070762
      dxy     :     0.127751

  1 O s       :     3.547133  s :     3.547133
      pz      :     1.450495  p :     4.704463
      px      :     1.793044
      py      :     1.460925
      dz2     :     0.007346  d :     0.057562
      dxz     :     0.001605
      dyz     :     0.017380
      dx2y2   :     0.019312
      dxy     :     0.011921

  2 O s       :     3.460603  s :     3.460603
      pz      :     1.779959  p :     4.708028
      px      :     1.272388
      py      :     1.655681
      dz2     :     0.006384  d :     0.047992
      dxz     :     0.005989
      dyz     :     0.003484
      dx2y2   :     0.009424
      dxy     :     0.022711

  3 C s       :     2.869986  s :     2.869986
      pz      :     1.071886  p :     3.014125
      px      :     1.013038
      py      :     0.929202
      dz2     :     0.025845  d :     0.141794
      dxz     :     0.022226
      dyz     :     0.018684
      dx2y2   :     0.030200
      dxy     :     0.044839

  4 H s       :     0.679296  s :     0.679296
      pz      :     0.027811  p :     0.120750
      px      :     0.051351
      py      :     0.041588

  5 C s       :     2.909804  s :     2.909804
      pz      :     1.030935  p :     3.186272
      px      :     1.070365
      py      :     1.084971
      dz2     :     0.017654  d :     0.073228
      dxz     :     0.021456
      dyz     :     0.007533
      dx2y2   :     0.013567
      dxy     :     0.013018

  6 H s       :     0.880362  s :     0.880362
      pz      :     0.006780  p :     0.040777
      px      :     0.021598
      py      :     0.012399

  7 N s       :     3.183428  s :     3.183428
      pz      :     1.181535  p :     4.033824
      px      :     1.587526
      py      :     1.264763
      dz2     :     0.009225  d :     0.061371
      dxz     :     0.019110
      dyz     :     0.011577
      dx2y2   :     0.015554
      dxy     :     0.005904

  8 H s       :     0.879556  s :     0.879556
      pz      :     0.006767  p :     0.040966
      px      :     0.007796
      py      :     0.026404

  9 H s       :     0.894782  s :     0.894782
      pz      :     0.020459  p :     0.039947
      px      :     0.012533
      py      :     0.006955

 10 H s       :     0.874644  s :     0.874644
      pz      :     0.020031  p :     0.039069
      px      :     0.014386
      py      :     0.004652

 11 H s       :     0.787755  s :     0.787755
      pz      :     0.035954  p :     0.081858
      px      :     0.030888
      py      :     0.015017

 12 H s       :     0.788729  s :     0.788729
      pz      :     0.033029  p :     0.081709
      px      :     0.027806
      py      :     0.020874



                      *****************************
                      * MAYER POPULATION ANALYSIS *
                      *****************************

  NA   - Mulliken gross atomic population
  ZA   - Total nuclear charge
  QA   - Mulliken gross atomic charge
  VA   - Mayer's total valence
  BVA  - Mayer's bonded valence
  FA   - Mayer's free valence

  ATOM       NA         ZA         QA         VA         BVA        FA
  0 C      5.2125     6.0000     0.7875     3.6708     3.6708    -0.0000
  1 O      8.5838     8.0000    -0.5838     1.8849     1.8849     0.0000
  2 O      8.6432     8.0000    -0.6432     1.8341     1.8341     0.0000
  3 C      6.0430     6.0000    -0.0430     3.7697     3.7697     0.0000
  4 H      0.6282     1.0000     0.3718     0.8725     0.8725     0.0000
  5 C      6.3361     6.0000    -0.3361     3.8308     3.8308    -0.0000
  6 H      0.8543     1.0000     0.1457     0.9506     0.9506     0.0000
  7 N      7.6777     7.0000    -0.6777     2.7528     2.7528    -0.0000
  8 H      0.8535     1.0000     0.1465     0.9499     0.9499    -0.0000
  9 H      0.8849     1.0000     0.1151     0.9529     0.9529     0.0000
 10 H      0.8335     1.0000     0.1665     0.9386     0.9386     0.0000
 11 H      0.7241     1.0000     0.2759     0.9068     0.9068     0.0000
 12 H      0.7253     1.0000     0.2747     0.9052     0.9052    -0.0000

  Mayer bond orders larger than 0.100000
B(  0-C ,  1-O ) :   1.8165 B(  0-C ,  2-O ) :   0.9743 B(  0-C ,  3-C ) :   0.9100 
B(  2-O ,  4-H ) :   0.8405 B(  3-C ,  5-C ) :   0.9695 B(  3-C ,  7-N ) :   0.9709 
B(  3-C , 10-H ) :   0.9620 B(  5-C ,  6-H ) :   0.9686 B(  5-C ,  8-H ) :   0.9652 
B(  5-C ,  9-H ) :   0.9704 B(  7-N , 11-H ) :   0.9031 B(  7-N , 12-H ) :   0.9098 


-------
TIMINGS
-------

Total SCF time: 0 days 0 hours 0 min 5 sec 

Total time                  ....       5.953 sec
Sum of individual times     ....       5.626 sec  ( 94.5%)

SCF preparation             ....       0.014 sec  (  0.2%)
Fock matrix formation       ....       5.589 sec  ( 93.9%)
  Startup                   ....       0.000 sec  (  0.0% of F)
  Coulomb+Exchange Fock     ....       5.907 sec  (105.7% of F)
Diagonalization             ....       0.000 sec  (  0.0%)
Density matrix formation    ....       0.002 sec  (  0.0%)
Total Energy calculation    ....       0.000 sec  (  0.0%)
Population analysis         ....       0.001 sec  (  0.0%)
Orbital Transformation      ....       0.002 sec  (  0.0%)
Orbital Orthonormalization  ....       0.000 sec  (  0.0%)
DIIS solution               ....       0.011 sec  (  0.2%)
SOSCF solution              ....       0.006 sec  (  0.1%)
Finished LeanSCF after   6.0 sec

Maximum memory used throughout the entire LEANSCF-calculation: 10.6 MB

------------------------------------------------------------------------------
                                ORCA  MP2 
------------------------------------------------------------------------------

Freezing NCore=12 chemical core electrons
MP2 will be done in the AO integral direct mode
The Q1-step will be done using symmetric double matrices
Dimension of the basis                    ...  119
Memory devoted for MP2                    ... 4096 MB   
Memory needed for all in one shot         ...  118 MB
Number of MOs that can be treated together...  630      
MP2 density construction                  ... relaxed
The MP2 gradient is requested => amplitudes will be stored on disk
Total number of MOs              ...   18
Number of MOs treated per batch  ...   18 
Number of batches necessary      ...    1 
OPERATORS   0/  0 PASS   0
-----------------------------------------------
 MP2 CORRELATION ENERGY   :     -0.934431416 Eh
-----------------------------------------------


---------------------
MP2 DENSITY FORMATION
---------------------

Completing the external part of the density      ... done
Storing the unrelaxed density                    ... done

Calculating G(D)                                 ... done
Completing the Lagrangian                        ... done
Solving the Z-vector equations                   ... 
-------------------
SHARK CP-SCF DRIVER
-------------------

Dimension of the orbital basis          ...    119
Dimension of the CPSCF-problem          ...   2280
Number of operators                     ...      1
Max. number of iterations               ...    128
Convergence Tolerance                   ... 1.0e-04
Number of perturbations                 ...      1
Perturbation type                       ... REAL

----------------------------
POPLE LINEAR EQUATION SOLVER
----------------------------

  ITERATION   0:   ||err||_max =   1.1536e-01 (   0.6 sec)
  ITERATION   1:   ||err||_max =   2.9760e-02 (   0.6 sec)
  ITERATION   2:   ||err||_max =   1.2734e-02 (   0.6 sec)
  ITERATION   3:   ||err||_max =   3.1675e-03 (   0.6 sec)
  ITERATION   4:   ||err||_max =   1.0930e-03 (   0.6 sec)
  ITERATION   5:   ||err||_max =   2.6862e-04 (   0.6 sec)
  ITERATION   6:   ||err||_max =   7.8918e-05 (   0.6 sec)
                                                 ... done
Finalizing the relaxed density                   ... done
Transforming P to the AO basis                   ... done
Storing the relaxed density                      ... done

------------------------------------
ENERGY WEIGHTED DENSITY FINALIZATION
------------------------------------

Gathering the parts of the W-matrix              ...                                                      done
Forming the Z-density                            ... done
Transforming Z to the AO basis                   ... done
Calculating G(Z)                                 ... done
Finalizing the W-matrix                          ...                                                      done
Transforming W to the AO basis and storing       ... done

                *********************************************
                * UNRELAXED MP2 DENSITY POPULATION ANALYSIS *
                *********************************************

------------------------------------------------------------------------------
                           ORCA POPULATION ANALYSIS
------------------------------------------------------------------------------
Input electron density              ... 1.pmp2ur
BaseName (.gbw .S,...)              ... 1

                    ********************************
                    * MULLIKEN POPULATION ANALYSIS *
                    ********************************

-----------------------
MULLIKEN ATOMIC CHARGES
-----------------------
   0 C :    0.754739
   1 O :   -0.561168
   2 O :   -0.629628
   3 C :   -0.048679
   4 H :    0.368621
   5 C :   -0.338256
   6 H :    0.146399
   7 N :   -0.670442
   8 H :    0.147149
   9 H :    0.116028
  10 H :    0.167138
  11 H :    0.274565
  12 H :    0.273533
Sum of atomic charges:    0.0000000

--------------------------------
MULLIKEN REDUCED ORBITAL CHARGES
--------------------------------
  0 C s       :     2.958064  s :     2.958064
      pz      :     0.649220  p :     2.130693
      px      :     0.739448
      py      :     0.742025
      dz2     :     0.016283  d :     0.156504
      dxz     :     0.020356
      dyz     :     0.025911
      dx2y2   :     0.035027
      dxy     :     0.058926
  1 O s       :     3.867366  s :     3.867366
      pz      :     1.449175  p :     4.639482
      px      :     1.823907
      py      :     1.366401
      dz2     :     0.009307  d :     0.054320
      dxz     :     0.005290
      dyz     :     0.015676
      dx2y2   :     0.013169
      dxy     :     0.010878
  2 O s       :     3.829895  s :     3.829895
      pz      :     1.814805  p :     4.751405
      px      :     1.267595
      py      :     1.669004
      dz2     :     0.008082  d :     0.048328
      dxz     :     0.007928
      dyz     :     0.007706
      dx2y2   :     0.007144
      dxy     :     0.017468
  3 C s       :     3.210901  s :     3.210901
      pz      :     1.063705  p :     2.751684
      px      :     0.923798
      py      :     0.764181
      dz2     :     0.016606  d :     0.086094
      dxz     :     0.015234
      dyz     :     0.012885
      dx2y2   :     0.017667
      dxy     :     0.023702
  4 H s       :     0.588746  s :     0.588746
      pz      :     0.009507  p :     0.042633
      px      :     0.018982
      py      :     0.014144
  5 C s       :     3.256016  s :     3.256016
      pz      :     0.942269  p :     3.025410
      px      :     1.030964
      py      :     1.052177
      dz2     :     0.012628  d :     0.056829
      dxz     :     0.014741
      dyz     :     0.007184
      dx2y2   :     0.011437
      dxy     :     0.010840
  6 H s       :     0.838176  s :     0.838176
      pz      :     0.002927  p :     0.015425
      px      :     0.007706
      py      :     0.004793
  7 N s       :     3.592668  s :     3.592668
      pz      :     1.187123  p :     4.021515
      px      :     1.614927
      py      :     1.219465
      dz2     :     0.008495  d :     0.056259
      dxz     :     0.018014
      dyz     :     0.008568
      dx2y2   :     0.013727
      dxy     :     0.007454
  8 H s       :     0.837377  s :     0.837377
      pz      :     0.002973  p :     0.015474
      px      :     0.003086
      py      :     0.009415
  9 H s       :     0.868496  s :     0.868496
      pz      :     0.007671  p :     0.015476
      px      :     0.004849
      py      :     0.002956
 10 H s       :     0.817988  s :     0.817988
      pz      :     0.007398  p :     0.014874
      px      :     0.005319
      py      :     0.002157
 11 H s       :     0.697269  s :     0.697269
      pz      :     0.012536  p :     0.028166
      px      :     0.010227
      py      :     0.005403
 12 H s       :     0.698325  s :     0.698325
      pz      :     0.011475  p :     0.028142
      px      :     0.009175
      py      :     0.007492


                     *******************************
                     * LOEWDIN POPULATION ANALYSIS *
                     *******************************

----------------------
LOEWDIN ATOMIC CHARGES
----------------------
   0 C :    0.205647
   1 O :   -0.290764
   2 O :   -0.208055
   3 C :   -0.029472
   4 H :    0.197610
   5 C :   -0.169666
   6 H :    0.079039
   7 N :   -0.274495
   8 H :    0.079617
   9 H :    0.065544
  10 H :    0.086465
  11 H :    0.129633
  12 H :    0.128899

-------------------------------
LOEWDIN REDUCED ORBITAL CHARGES
-------------------------------
  0 C s       :     2.853361  s :     2.853361
      pz      :     0.709893  p :     2.613768
      px      :     0.921860
      py      :     0.982015
      dz2     :     0.031731  d :     0.327224
      dxz     :     0.040456
      dyz     :     0.052258
      dx2y2   :     0.073656
      dxy     :     0.129123
  1 O s       :     3.544162  s :     3.544162
      pz      :     1.435667  p :     4.664951
      px      :     1.778695
      py      :     1.450589
      dz2     :     0.011897  d :     0.081651
      dxz     :     0.006088
      dyz     :     0.022280
      dx2y2   :     0.024569
      dxy     :     0.016817
  2 O s       :     3.458654  s :     3.458654
      pz      :     1.766966  p :     4.676924
      px      :     1.264879
      py      :     1.645080
      dz2     :     0.011333  d :     0.072478
      dxz     :     0.010923
      dyz     :     0.008094
      dx2y2   :     0.014120
      dxy     :     0.028008
  3 C s       :     2.870273  s :     2.870273
      pz      :     1.065279  p :     2.999869
      px      :     1.008362
      py      :     0.926228
      dz2     :     0.029495  d :     0.159330
      dxz     :     0.026197
      dyz     :     0.022182
      dx2y2   :     0.033687
      dxy     :     0.047769
  4 H s       :     0.679179  s :     0.679179
      pz      :     0.028463  p :     0.123212
      px      :     0.052179
      py      :     0.042570
  5 C s       :     2.909014  s :     2.909014
      pz      :     1.025548  p :     3.169709
      px      :     1.064896
      py      :     1.079265
      dz2     :     0.021235  d :     0.090943
      dxz     :     0.024908
      dyz     :     0.011035
      dx2y2   :     0.017160
      dxy     :     0.016606
  6 H s       :     0.875751  s :     0.875751
      pz      :     0.008024  p :     0.045209
      px      :     0.023385
      py      :     0.013801
  7 N s       :     3.181594  s :     3.181594
      pz      :     1.175324  p :     4.007710
      px      :     1.576023
      py      :     1.256363
      dz2     :     0.013648  d :     0.085192
      dxz     :     0.023991
      dyz     :     0.016078
      dx2y2   :     0.020528
      dxy     :     0.010947
  8 H s       :     0.874975  s :     0.874975
      pz      :     0.007997  p :     0.045408
      px      :     0.009057
      py      :     0.028355
  9 H s       :     0.889954  s :     0.889954
      pz      :     0.022292  p :     0.044502
      px      :     0.014024
      py      :     0.008186
 10 H s       :     0.869820  s :     0.869820
      pz      :     0.021808  p :     0.043715
      px      :     0.015901
      py      :     0.006006
 11 H s       :     0.784817  s :     0.784817
      pz      :     0.037355  p :     0.085551
      px      :     0.032158
      py      :     0.016037
 12 H s       :     0.785689  s :     0.785689
      pz      :     0.034464  p :     0.085413
      px      :     0.028994
      py      :     0.021955


                      *****************************
                      * MAYER POPULATION ANALYSIS *
                      *****************************

  NA   - Mulliken gross atomic population
  ZA   - Total nuclear charge
  QA   - Mulliken gross atomic charge
  VA   - Mayer's total valence
  BVA  - Mayer's bonded valence
  FA   - Mayer's free valence

  ATOM       NA         ZA         QA         VA         BVA        FA
  0 C      5.2453     6.0000     0.7547     3.7345     3.4461     0.2884
  1 O      8.5612     8.0000    -0.5612     2.1500     1.7531     0.3969
  2 O      8.6296     8.0000    -0.6296     2.0938     1.7367     0.3571
  3 C      6.0487     6.0000    -0.0487     3.8461     3.5726     0.2735
  4 H      0.6314     1.0000     0.3686     0.8795     0.8353     0.0442
  5 C      6.3383     6.0000    -0.3383     3.9188     3.6691     0.2497
  6 H      0.8536     1.0000     0.1464     0.9590     0.9136     0.0453
  7 N      7.6704     7.0000    -0.6704     2.9455     2.6221     0.3234
  8 H      0.8529     1.0000     0.1471     0.9585     0.9128     0.0456
  9 H      0.8840     1.0000     0.1160     0.9622     0.9157     0.0465
 10 H      0.8329     1.0000     0.1671     0.9468     0.8999     0.0469
 11 H      0.7254     1.0000     0.2746     0.9140     0.8686     0.0453
 12 H      0.7265     1.0000     0.2735     0.9123     0.8670     0.0452

  Mayer bond orders larger than 0.100000
B(  0-C ,  1-O ) :   1.6978 B(  0-C ,  2-O ) :   0.9211 B(  0-C ,  3-C ) :   0.8613 
B(  2-O ,  4-H ) :   0.8057 B(  3-C ,  5-C ) :   0.9177 B(  3-C ,  7-N ) :   0.9162 
B(  3-C , 10-H ) :   0.9252 B(  5-C ,  6-H ) :   0.9328 B(  5-C ,  8-H ) :   0.9292 
B(  5-C ,  9-H ) :   0.9340 B(  7-N , 11-H ) :   0.8664 B(  7-N , 12-H ) :   0.8731 



                *******************************************
                * RELAXED MP2 DENSITY POPULATION ANALYSIS *
                *******************************************

------------------------------------------------------------------------------
                           ORCA POPULATION ANALYSIS
------------------------------------------------------------------------------
Input electron density              ... 1.pmp2re
BaseName (.gbw .S,...)              ... 1

                    ********************************
                    * MULLIKEN POPULATION ANALYSIS *
                    ********************************

-----------------------
MULLIKEN ATOMIC CHARGES
-----------------------
   0 C :    0.564986
   1 O :   -0.431776
   2 O :   -0.530920
   3 C :   -0.058554
   4 H :    0.343205
   5 C :   -0.330776
   6 H :    0.138520
   7 N :   -0.612060
   8 H :    0.137259
   9 H :    0.111916
  10 H :    0.150800
  11 H :    0.258551
  12 H :    0.258849
Sum of atomic charges:    0.0000000

--------------------------------
MULLIKEN REDUCED ORBITAL CHARGES
--------------------------------
  0 C s       :     2.980381  s :     2.980381
      pz      :     0.753719  p :     2.307671
      px      :     0.780808
      py      :     0.773143
      dz2     :     0.014727  d :     0.146963
      dxz     :     0.019944
      dyz     :     0.023558
      dx2y2   :     0.032745
      dxy     :     0.055989
  1 O s       :     3.842188  s :     3.842188
      pz      :     1.395318  p :     4.538061
      px      :     1.775584
      py      :     1.367159
      dz2     :     0.008761  d :     0.051527
      dxz     :     0.005367
      dyz     :     0.014238
      dx2y2   :     0.011872
      dxy     :     0.011289
  2 O s       :     3.811779  s :     3.811779
      pz      :     1.774768  p :     4.672269
      px      :     1.251369
      py      :     1.646131
      dz2     :     0.007962  d :     0.046872
      dxz     :     0.007797
      dyz     :     0.007763
      dx2y2   :     0.007478
      dxy     :     0.015872
  3 C s       :     3.190122  s :     3.190122
      pz      :     1.049298  p :     2.789212
      px      :     0.949725
      py      :     0.790189
      dz2     :     0.014956  d :     0.079219
      dxz     :     0.014053
      dyz     :     0.012315
      dx2y2   :     0.016362
      dxy     :     0.021532
  4 H s       :     0.615975  s :     0.615975
      pz      :     0.009798  p :     0.040820
      px      :     0.017433
      py      :     0.013589
  5 C s       :     3.237452  s :     3.237452
      pz      :     0.955914  p :     3.041651
      px      :     1.033992
      py      :     1.051745
      dz2     :     0.011616  d :     0.051674
      dxz     :     0.013017
      dyz     :     0.006605
      dx2y2   :     0.010566
      dxy     :     0.009869
  6 H s       :     0.846809  s :     0.846809
      pz      :     0.003093  p :     0.014670
      px      :     0.006935
      py      :     0.004643
  7 N s       :     3.573359  s :     3.573359
      pz      :     1.173062  p :     3.985413
      px      :     1.592379
      py      :     1.219972
      dz2     :     0.007651  d :     0.053288
      dxz     :     0.016889
      dyz     :     0.008452
      dx2y2   :     0.012441
      dxy     :     0.007856
  8 H s       :     0.848024  s :     0.848024
      pz      :     0.003144  p :     0.014717
      px      :     0.003267
      py      :     0.008306
  9 H s       :     0.873295  s :     0.873295
      pz      :     0.006946  p :     0.014789
      px      :     0.004665
      py      :     0.003178
 10 H s       :     0.835177  s :     0.835177
      pz      :     0.006704  p :     0.014023
      px      :     0.004983
      py      :     0.002335
 11 H s       :     0.714394  s :     0.714394
      pz      :     0.011406  p :     0.027055
      px      :     0.009969
      py      :     0.005680
 12 H s       :     0.714113  s :     0.714113
      pz      :     0.010501  p :     0.027038
      px      :     0.009112
      py      :     0.007425


                     *******************************
                     * LOEWDIN POPULATION ANALYSIS *
                     *******************************

----------------------
LOEWDIN ATOMIC CHARGES
----------------------
   0 C :    0.124288
   1 O :   -0.218627
   2 O :   -0.173141
   3 C :   -0.046399
   4 H :    0.188061
   5 C :   -0.182931
   6 H :    0.080639
   7 N :   -0.263725
   8 H :    0.080786
   9 H :    0.068915
  10 H :    0.086571
  11 H :    0.127686
  12 H :    0.127877

-------------------------------
LOEWDIN REDUCED ORBITAL CHARGES
-------------------------------
  0 C s       :     2.857212  s :     2.857212
      pz      :     0.788157  p :     2.698197
      px      :     0.925451
      py      :     0.984588
      dz2     :     0.029869  d :     0.320304
      dxz     :     0.039902
      dyz     :     0.049570
      dx2y2   :     0.072838
      dxy     :     0.128126
  1 O s       :     3.546431  s :     3.546431
      pz      :     1.392901  p :     4.590896
      px      :     1.745732
      py      :     1.452262
      dz2     :     0.011974  d :     0.081301
      dxz     :     0.006207
      dyz     :     0.022064
      dx2y2   :     0.023453
      dxy     :     0.017602
  2 O s       :     3.464005  s :     3.464005
      pz      :     1.735705  p :     4.635781
      px      :     1.265012
      py      :     1.635064
      dz2     :     0.011650  d :     0.073354
      dxz     :     0.011470
      dyz     :     0.008404
      dx2y2   :     0.014273
      dxy     :     0.027557
  3 C s       :     2.873157  s :     2.873157
      pz      :     1.062912  p :     3.020371
      px      :     1.023147
      py      :     0.934312
      dz2     :     0.027847  d :     0.152871
      dxz     :     0.025490
      dyz     :     0.021677
      dx2y2   :     0.032150
      dxy     :     0.045707
  4 H s       :     0.690838  s :     0.690838
      pz      :     0.028296  p :     0.121101
      px      :     0.050638
      py      :     0.042168
  5 C s       :     2.910063  s :     2.910063
      pz      :     1.033190  p :     3.187477
      px      :     1.070622
      py      :     1.083665
      dz2     :     0.020069  d :     0.085391
      dxz     :     0.023009
      dyz     :     0.010366
      dx2y2   :     0.016350
      dxy     :     0.015596
  6 H s       :     0.874465  s :     0.874465
      pz      :     0.008282  p :     0.044896
      px      :     0.022872
      py      :     0.013741
  7 N s       :     3.182145  s :     3.182145
      pz      :     1.175673  p :     3.998655
      px      :     1.566978
      py      :     1.256004
      dz2     :     0.012867  d :     0.082925
      dxz     :     0.023232
      dyz     :     0.015887
      dx2y2   :     0.019592
      dxy     :     0.011347
  8 H s       :     0.874211  s :     0.874211
      pz      :     0.008287  p :     0.045002
      px      :     0.009181
      py      :     0.027535
  9 H s       :     0.886847  s :     0.886847
      pz      :     0.021906  p :     0.044238
      px      :     0.013997
      py      :     0.008335
 10 H s       :     0.870208  s :     0.870208
      pz      :     0.021224  p :     0.043221
      px      :     0.015706
      py      :     0.006291
 11 H s       :     0.787962  s :     0.787962
      pz      :     0.036141  p :     0.084352
      px      :     0.031984
      py      :     0.016227
 12 H s       :     0.787869  s :     0.787869
      pz      :     0.033474  p :     0.084254
      px      :     0.028945
      py      :     0.021834


                      *****************************
                      * MAYER POPULATION ANALYSIS *
                      *****************************

  NA   - Mulliken gross atomic population
  ZA   - Total nuclear charge
  QA   - Mulliken gross atomic charge
  VA   - Mayer's total valence
  BVA  - Mayer's bonded valence
  FA   - Mayer's free valence

  ATOM       NA         ZA         QA         VA         BVA        FA
  0 C      5.4350     6.0000     0.5650     3.9543     3.6835     0.2708
  1 O      8.4318     8.0000    -0.4318     2.3088     1.9269     0.3820
  2 O      8.5309     8.0000    -0.5309     2.2117     1.8629     0.3488
  3 C      6.0586     6.0000    -0.0586     3.9166     3.6474     0.2692
  4 H      0.6568     1.0000     0.3432     0.9008     0.8577     0.0431
  5 C      6.3308     6.0000    -0.3308     3.9467     3.6987     0.2480
  6 H      0.8615     1.0000     0.1385     0.9622     0.9168     0.0454
  7 N      7.6121     7.0000    -0.6121     3.0150     2.6955     0.3195
  8 H      0.8627     1.0000     0.1373     0.9630     0.9173     0.0456
  9 H      0.8881     1.0000     0.1119     0.9652     0.9187     0.0465
 10 H      0.8492     1.0000     0.1508     0.9519     0.9049     0.0470
 11 H      0.7414     1.0000     0.2586     0.9242     0.8789     0.0453
 12 H      0.7412     1.0000     0.2588     0.9203     0.8750     0.0453

  Mayer bond orders larger than 0.100000
B(  0-C ,  1-O ) :   1.8159 B(  0-C ,  2-O ) :   1.0031 B(  0-C ,  3-C ) :   0.8652 
B(  2-O ,  4-H ) :   0.8121 B(  3-C ,  5-C ) :   0.9323 B(  3-C ,  7-N ) :   0.9527 
B(  3-C , 10-H ) :   0.9173 B(  5-C ,  6-H ) :   0.9290 B(  5-C ,  8-H ) :   0.9265 
B(  5-C ,  9-H ) :   0.9317 B(  7-N , 11-H ) :   0.8694 B(  7-N , 12-H ) :   0.8750 



----------------------------------
MP2 DERIVATIVE INTEGRAL GENERATION
----------------------------------

Input SCF Electron Density              ... 1.scfp
Input Correlated Electron Density       ... 1.pmp2re
Input Energy Weighted Density           ... 1.wmp2.tmp
Input Wavefunction Amplitudes           ... 1.mp2tsaa.tmp

Nuclear repulsion gradient              ... done (  0.0 sec)
HCore & Overlap gradient  (SHARK)       ... done (  0.0 sec)
Analytic two-electron gradient terms    ... 
  Batch handling in the gradient evaluation:
  General contraction                   ... not used
  Memory available                      ... 4089.5 MB
  Memory per occupied orbital in Q2     ...    1.9 MB
  Memory per occupied orbital in Q3     ...    0.0 MB
  Total memory requirement per |i>      ...    2.0 MB
  Number of orbitals treated per batch  ...     18
  Number of batches to be done          ...      1
done (  3.5 sec)

---------------------------------------
MP2 TOTAL ENERGY:     -322.816841771 Eh
---------------------------------------

The final MP2 gradient
  0:   0.00682511   0.01484986   0.00082725
  1:   0.00435706  -0.03264363  -0.01104390
  2:  -0.01465788   0.02016068   0.00894038
  3:  -0.00239086  -0.00066105   0.00334493
  4:   0.00517373  -0.00543741  -0.00204121
  5:   0.00041977   0.00101436  -0.00532427
  6:   0.00105670   0.00089522   0.00053556
  7:   0.00638200   0.00670513   0.00084680
  8:  -0.00003472  -0.00159763   0.00077927
  9:  -0.00113121  -0.00017872   0.00154117
 10:  -0.00323769  -0.00170156   0.00228078
 11:  -0.00124176  -0.00062411  -0.00258799
 12:  -0.00152026  -0.00078114   0.00190122

-----------------------------------
NORM OF THE MP2 GRADIENT:  0.049114
-----------------------------------

Maximum memory used throughout the entire MP2-calculation: 135.2 MB

-------------------------   --------------------
FINAL SINGLE POINT ENERGY      -322.816841770959
-------------------------   --------------------

------------------------------------------------------------------------------
                         ORCA GEOMETRY RELAXATION STEP
------------------------------------------------------------------------------

Reading the OPT-File                    .... done
Getting information on internals        .... done
Copying old internal coords+grads       .... done
Making the new internal coordinates     .... (2022 redundants) done
Validating the new internal coordinates .... (2022 redundants) done
Calculating the B-matrix                .... done
Calculating the G,G- and P matrices     .... done
Transforming gradient to internals      .... done
Projecting the internal gradient        .... done
Number of atoms                         ....  13
Number of internal coordinates          ....  49
Current Energy                          ....  -322.816841771 Eh
Current gradient norm                   ....     0.049113929 Eh/bohr
Maximum allowed component of the step   ....  0.300
Current trust radius                    ....  0.300
Evaluating the initial hessian          ....  (Almloef) done
Projecting the Hessian                  .... done
Forming the augmented Hessian           .... done
Diagonalizing the augmented Hessian     .... done
Last element of RFO vector              ....  0.992622692
Lowest eigenvalues of augmented Hessian:
 -0.002878646  0.010660703  0.010961895  0.017155515  0.017537127
Length of the computed step             ....  0.122145450
The final length of the internal step   ....  0.122145450
Converting the step to Cartesian space:
 Initial RMS(Int)=    0.0174493499
Transforming coordinates:
 Iter   0:  RMS(Cart)=    0.0296040352 RMS(Int)=    1.2677679244
done
Storing new coordinates                 .... done

                                .--------------------.
          ----------------------|Geometry convergence|-------------------------
          Item                value                   Tolerance       Converged
          ---------------------------------------------------------------------
          RMS gradient        0.0061392550            0.0001000000      NO
          MAX gradient        0.0345105722            0.0003000000      NO
          RMS step            0.0174493499            0.0020000000      NO
          MAX step            0.0566065963            0.0040000000      NO
          -------------------------------------------------------------------------
          ........................................................
          Max(Bonds)      0.0163      Max(Angles)    2.17
          Max(Dihed)        3.24      Max(Improp)    0.00
          ---------------------------------------------------------------------

The optimization has not yet converged - more geometry cycles are needed


    ---------------------------------------------------------------------------
                         Redundant Internal Coordinates
                            (Angstroem and degrees)

        Definition                    Value    dE/dq     Step     New-Value
    ----------------------------------------------------------------------------
     1. B(O   1,C   0)                1.2016 -0.034511  0.0163    1.2179   
     2. B(O   2,C   0)                1.3414 -0.016639  0.0131    1.3545   
     3. B(C   3,C   0)                1.5270 -0.000868  0.0012    1.5282   
     4. B(H   4,O   2)                0.9699  0.000482 -0.0005    0.9694   
     5. B(C   5,C   3)                1.5324  0.001848 -0.0026    1.5298   
     6. B(H   6,C   5)                1.0857 -0.001433  0.0021    1.0878   
     7. B(N   7,C   3)                1.4473 -0.004534  0.0053    1.4526   
     8. B(H   8,C   5)                1.0861 -0.001405  0.0020    1.0881   
     9. B(H   9,C   5)                1.0881 -0.001893  0.0027    1.0908   
    10. B(H  10,C   3)                1.0969  0.003558 -0.0053    1.0916   
    11. B(H  11,N   7)                1.0146  0.001456 -0.0018    1.0128   
    12. B(H  12,N   7)                1.0138  0.001058 -0.0013    1.0125   
    13. A(O   1,C   0,C   3)          124.95  0.003192   -0.40    124.56   
    14. A(O   2,C   0,C   3)          112.63  0.002413   -0.32    112.31   
    15. A(O   1,C   0,O   2)          122.41 -0.005584    0.67    123.08   
    16. A(C   0,O   2,H   4)          110.25  0.014222   -2.17    108.08   
    17. A(C   0,C   3,H  10)          106.91  0.002562   -1.02    105.89   
    18. A(C   0,C   3,N   7)          115.22 -0.005063    1.35    116.58   
    19. A(C   0,C   3,C   5)          107.74  0.000918    0.04    107.77   
    20. A(C   5,C   3,N   7)          109.86  0.001695    0.05    109.91   
    21. A(N   7,C   3,H  10)          108.19 -0.000140   -0.09    108.10   
    22. A(C   5,C   3,H  10)          108.73  0.000257   -0.45    108.28   
    23. A(H   8,C   5,H   9)          109.08  0.000800   -0.21    108.87   
    24. A(H   6,C   5,H   9)          108.72  0.000056   -0.07    108.65   
    25. A(C   3,C   5,H   6)          109.13 -0.000182    0.06    109.19   
    26. A(C   3,C   5,H   9)          110.19  0.000262   -0.10    110.09   
    27. A(H   6,C   5,H   8)          109.63  0.000151    0.10    109.73   
    28. A(C   3,C   5,H   8)          110.07 -0.001073    0.22    110.29   
    29. A(H  11,N   7,H  12)          107.60  0.001441   -0.85    106.74   
    30. A(C   3,N   7,H  12)          110.84  0.000410   -0.33    110.51   
[...]
MULLIKEN REDUCED ORBITAL CHARGES
--------------------------------
  0 C s       :     2.992547  s :     2.992547
      pz      :     0.732560  p :     2.301081
      px      :     0.790646
      py      :     0.777875
      dz2     :     0.024874  d :     0.140907
      dxz     :     0.030610
      dyz     :     0.019690
      dx2y2   :     0.025523
      dxy     :     0.040209
  1 O s       :     3.856145  s :     3.856145
      pz      :     1.400408  p :     4.529216
      px      :     1.755527
      py      :     1.373280
      dz2     :     0.011781  d :     0.050725
      dxz     :     0.007157
      dyz     :     0.012058
      dx2y2   :     0.010378
      dxy     :     0.009350
  2 O s       :     3.826709  s :     3.826709
      pz      :     1.710599  p :     4.662735
      px      :     1.296431
      py      :     1.655705
      dz2     :     0.008941  d :     0.047440
      dxz     :     0.009896
      dyz     :     0.008151
      dx2y2   :     0.006971
      dxy     :     0.013482
  3 C s       :     3.190297  s :     3.190297
      pz      :     1.047182  p :     2.781814
      px      :     0.939730
      py      :     0.794902
      dz2     :     0.014771  d :     0.078950
      dxz     :     0.014485
      dyz     :     0.012646
      dx2y2   :     0.016460
      dxy     :     0.020588
  4 H s       :     0.616064  s :     0.616064
      pz      :     0.009636  p :     0.040760
      px      :     0.016332
      py      :     0.014792
  5 C s       :     3.238241  s :     3.238241
      pz      :     0.954127  p :     3.042211
      px      :     1.044763
      py      :     1.043321
      dz2     :     0.011468  d :     0.051712
      dxz     :     0.013280
      dyz     :     0.006638
      dx2y2   :     0.011018
      dxy     :     0.009308
  6 H s       :     0.844073  s :     0.844073
      pz      :     0.003132  p :     0.014632
      px      :     0.006977
      py      :     0.004524
  7 N s       :     3.590127  s :     3.590127
      pz      :     1.187348  p :     3.966288
      px      :     1.580935
      py      :     1.198005
      dz2     :     0.007846  d :     0.054072
      dxz     :     0.016716
      dyz     :     0.008562
      dx2y2   :     0.013190
      dxy     :     0.007758
  8 H s       :     0.855964  s :     0.855964
      pz      :     0.003048  p :     0.014657
      px      :     0.003269
      py      :     0.008340
  9 H s       :     0.866394  s :     0.866394
      pz      :     0.006612  p :     0.014707
      px      :     0.004937
      py      :     0.003158
 10 H s       :     0.836161  s :     0.836161
      pz      :     0.006555  p :     0.014048
      px      :     0.005095
      py      :     0.002398
 11 H s       :     0.710668  s :     0.710668
      pz      :     0.010633  p :     0.027023
      px      :     0.010742
      py      :     0.005647
 12 H s       :     0.716660  s :     0.716660
      pz      :     0.011159  p :     0.026976
      px      :     0.008517
      py      :     0.007300


                     *******************************
                     * LOEWDIN POPULATION ANALYSIS *
                     *******************************

----------------------
LOEWDIN ATOMIC CHARGES
----------------------
   0 C :    0.142915
   1 O :   -0.223581
   2 O :   -0.188766
   3 C :   -0.044403
   4 H :    0.187782
   5 C :   -0.184339
   6 H :    0.082713
   7 N :   -0.262974
   8 H :    0.077765
   9 H :    0.071926
  10 H :    0.084132
  11 H :    0.128980
  12 H :    0.127849

-------------------------------
LOEWDIN REDUCED ORBITAL CHARGES
-------------------------------
  0 C s       :     2.865514  s :     2.865514
      pz      :     0.836844  p :     2.687888
      px      :     0.920695
      py      :     0.930348
      dz2     :     0.047751  d :     0.303683
      dxz     :     0.067070
      dyz     :     0.046866
      dx2y2   :     0.053537
      dxy     :     0.088459
  1 O s       :     3.561059  s :     3.561059
      pz      :     1.421843  p :     4.583632
      px      :     1.730469
      py      :     1.431320
      dz2     :     0.014396  d :     0.078890
      dxz     :     0.009428
      dyz     :     0.024447
      dx2y2   :     0.017067
      dxy     :     0.013552
  2 O s       :     3.483472  s :     3.483472
      pz      :     1.692203  p :     4.633610
      px      :     1.303353
      py      :     1.638055
      dz2     :     0.011747  d :     0.071683
      dxz     :     0.016596
      dyz     :     0.009555
      dx2y2   :     0.012044
      dxy     :     0.021742
  3 C s       :     2.872789  s :     2.872789
      pz      :     1.063498  p :     3.019620
      px      :     1.022750
      py      :     0.933372
      dz2     :     0.027764  d :     0.151995
      dxz     :     0.026469
      dyz     :     0.022344
      dx2y2   :     0.032454
      dxy     :     0.042964
  4 H s       :     0.691454  s :     0.691454
      pz      :     0.028065  p :     0.120764
      px      :     0.047689
      py      :     0.045010
  5 C s       :     2.910914  s :     2.910914
      pz      :     1.031617  p :     3.187914
      px      :     1.076186
      py      :     1.080112
      dz2     :     0.020056  d :     0.085511
      dxz     :     0.023331
      dyz     :     0.010578
      dx2y2   :     0.017132
      dxy     :     0.014414
  6 H s       :     0.872562  s :     0.872562
      pz      :     0.008492  p :     0.044725
      px      :     0.022991
      py      :     0.013243
  7 N s       :     3.197103  s :     3.197103
      pz      :     1.190738  p :     3.983078
      px      :     1.554560
      py      :     1.237780
      dz2     :     0.012658  d :     0.082794
      dxz     :     0.022789
      dyz     :     0.015817
      dx2y2   :     0.020558
      dxy     :     0.010973
  8 H s       :     0.877886  s :     0.877886
      pz      :     0.007963  p :     0.044349
      px      :     0.009035
      py      :     0.027350
  9 H s       :     0.883849  s :     0.883849
      pz      :     0.021000  p :     0.044224
      px      :     0.014930
      py      :     0.008294
 10 H s       :     0.871970  s :     0.871970
      pz      :     0.020850  p :     0.043898
      px      :     0.016335
      py      :     0.006714
 11 H s       :     0.786705  s :     0.786705
      pz      :     0.032989  p :     0.084315
      px      :     0.035230
      py      :     0.016097
 12 H s       :     0.788407  s :     0.788407
      pz      :     0.035828  p :     0.083744
      px      :     0.026757
      py      :     0.021159


                      *****************************
                      * MAYER POPULATION ANALYSIS *
                      *****************************

  NA   - Mulliken gross atomic population
  ZA   - Total nuclear charge
  QA   - Mulliken gross atomic charge
  VA   - Mayer's total valence
  BVA  - Mayer's bonded valence
  FA   - Mayer's free valence

  ATOM       NA         ZA         QA         VA         BVA        FA
  0 C      5.4345     6.0000     0.5655     3.9297     3.6516     0.2781
  1 O      8.4361     8.0000    -0.4361     2.3129     1.9238     0.3891
  2 O      8.5369     8.0000    -0.5369     2.1992     1.8459     0.3533
  3 C      6.0511     6.0000    -0.0511     3.9118     3.6424     0.2694
  4 H      0.6568     1.0000     0.3432     0.9023     0.8586     0.0437
  5 C      6.3322     6.0000    -0.3322     3.9406     3.6924     0.2482
  6 H      0.8587     1.0000     0.1413     0.9626     0.9173     0.0453
  7 N      7.6105     7.0000    -0.6105     3.0170     2.6956     0.3214
  8 H      0.8706     1.0000     0.1294     0.9620     0.9159     0.0461
  9 H      0.8811     1.0000     0.1189     0.9654     0.9189     0.0465
 10 H      0.8502     1.0000     0.1498     0.9527     0.9061     0.0466
 11 H      0.7377     1.0000     0.2623     0.9223     0.8768     0.0454
 12 H      0.7436     1.0000     0.2564     0.9179     0.8721     0.0458

  Mayer bond orders larger than 0.100000
B(  0-C ,  1-O ) :   1.8055 B(  0-C ,  2-O ) :   0.9828 B(  0-C ,  3-C ) :   0.8684 
B(  2-O ,  4-H ) :   0.8130 B(  3-C ,  5-C ) :   0.9297 B(  3-C ,  7-N ) :   0.9515 
B(  3-C , 10-H ) :   0.9194 B(  5-C ,  6-H ) :   0.9276 B(  5-C ,  8-H ) :   0.9286 
B(  5-C ,  9-H ) :   0.9290 B(  7-N , 11-H ) :   0.8658 B(  7-N , 12-H ) :   0.8753 



----------------------------------
MP2 DERIVATIVE INTEGRAL GENERATION
----------------------------------

Input SCF Electron Density              ... 1.scfp
Input Correlated Electron Density       ... 1.pmp2re
Input Energy Weighted Density           ... 1.wmp2.tmp
Input Wavefunction Amplitudes           ... 1.mp2tsaa.tmp

Nuclear repulsion gradient              ... done (  0.0 sec)
HCore & Overlap gradient  (SHARK)       ... done (  0.0 sec)
Analytic two-electron gradient terms    ... 
  Batch handling in the gradient evaluation:
  General contraction                   ... not used
  Memory available                      ... 4088.8 MB
  Memory per occupied orbital in Q2     ...    1.9 MB
  Memory per occupied orbital in Q3     ...    0.0 MB
  Total memory requirement per |i>      ...    2.0 MB
  Number of orbitals treated per batch  ...     18
  Number of batches to be done          ...      1
done (  3.5 sec)

---------------------------------------
MP2 TOTAL ENERGY:     -322.819002844 Eh
---------------------------------------

The final MP2 gradient
  0:   0.00001018  -0.00000390  -0.00001541
  1:  -0.00000214  -0.00001052  -0.00000258
  2:   0.00000104   0.00000695   0.00001143
  3:  -0.00002535  -0.00000915   0.00000971
  4:  -0.00000368   0.00000274   0.00000050
  5:   0.00000481  -0.00001273   0.00000522
  6:  -0.00000122   0.00000263  -0.00000164
  7:  -0.00000126   0.00001116  -0.00000612
  8:   0.00000411   0.00000222  -0.00000343
  9:  -0.00000276   0.00000487  -0.00000200
 10:   0.00000895   0.00001160   0.00000303
 11:   0.00000422  -0.00000123   0.00000304
 12:   0.00000309  -0.00000464  -0.00000176

-----------------------------------
NORM OF THE MP2 GRADIENT:  0.000047
-----------------------------------

Maximum memory used throughout the entire MP2-calculation: 135.9 MB

-------------------------   --------------------
FINAL SINGLE POINT ENERGY      -322.819002843807
-------------------------   --------------------

                                *** OPTIMIZATION RUN DONE ***


------------------------------------------------------------------------------
                              ORCA PROPERTY CALCULATIONS
------------------------------------------------------------------------------

GBWName                                 ... 1.gbw
Number of atoms                         ...     13
Number of basis functions               ...    119
Max core memory                         ...   4096 MB

Electric properties:
Dipole moment                           ... YES
Quadrupole moment                       ...  NO
Static polarizability (Dipole/Dipole)   ...  NO
Static polarizability (Dipole/Quad.)    ...  NO
Static polarizability (Quad./Quad.)     ...  NO
Static polarizability (Velocity)        ...  NO
Static hyperpolarizability              ...  NO

Atomic electric properties:
Dipole moment                           ...  NO
Quadrupole moment                       ...  NO
Static polarizability                   ...  NO

Choice of electric origin               ... Center of mass
Position of electric origin             ...    -9.914979    -0.429705    -3.768594

General magnetic properties:
Magnetizability                         ...  NO

EPR properties:
g-Tensor (aka g-matrix)                 ...  NO
Zero-Field splitting spin-orbit         ...  NO
Zero-field splitting spin-spin          ...  NO
Hyperfine couplings                     ...  NO (   0 nuclei)
Quadrupole couplings                    ...  NO (   0 nuclei)
Contact density                         ...  NO (   0 nuclei)

NMR properties:
Chemical shifts                         ...  NO (   0 nuclei)
Spin-rotation constants                 ...  NO (   0 nuclei)
Spin-spin couplings                     ...  NO (   0 nuclei,    0 pairs)

Choice of magnetic origin               ... GIAO
Position of magnetic origin             ...     0.000000     0.000000     0.000000

Properties with geometric perturbations:
SCF Hessian                             ...  NO
IR spectrum                             ...  NO
VCD spectrum                            ...  NO
X-ray spectroscopy properties:
SCF XES/XAS/RIXS spectra                ...  NO

SCF SOC stabilization energy            ...  NO
Diagonal Born-Oppenheimer correction    ...  NO

-------------
DIPOLE MOMENT
-------------

Method             : SCF
Type of density    : Electron Density
Multiplicity       :   1
Irrep              :   0
Energy             :  -321.8801199271779865 Eh
Basis              : AO
                                X                 Y                 Z
Electronic contribution:      4.202185186       2.105518650       2.977026134
Nuclear contribution   :     -3.746345342      -2.443959964      -3.361221900
                        -----------------------------------------
Total Dipole Moment    :      0.455839844      -0.338441314      -0.384195766
                        -----------------------------------------
Magnitude (a.u.)       :      0.685520877
Magnitude (Debye)      :      1.742455594



--------------------
Rotational spectrum 
--------------------
 
Rotational constants in cm-1:             0.168397             0.097342             0.081026 
Rotational constants in MHz :          5048.423456          2918.248265          2429.091753 

Dipole components along the rotational axes: 
x,y,z [a.u.] :    -0.044561     0.548882    -0.408266 
x,y,z [Debye]:    -0.113265     1.395148    -1.037730 

 

-------------
DIPOLE MOMENT
-------------

Method             : MP2
Type of density    : Electron Density
Multiplicity       :   1
Level              : Unrelaxed density
Irrep              :   0
Energy             :     0.0000000000000000 Eh
Basis              : AO
                                X                 Y                 Z
Electronic contribution:      4.209652817       2.127926520       2.992609949
Nuclear contribution   :     -3.746345342      -2.443959964      -3.361221900
                        -----------------------------------------
Total Dipole Moment    :      0.463307476      -0.316033443      -0.368611950
                        -----------------------------------------
Magnitude (a.u.)       :      0.671122734
Magnitude (Debye)      :      1.705858423



--------------------
Rotational spectrum 
--------------------
 
Rotational constants in cm-1:             0.168397             0.097342             0.081026 
Rotational constants in MHz :          5048.423456          2918.248265          2429.091753 

Dipole components along the rotational axes: 
x,y,z [a.u.] :    -0.019585     0.537475    -0.401426 
x,y,z [Debye]:    -0.049781     1.366153    -1.020344 

 

-------------
DIPOLE MOMENT
-------------

Method             : MP2
Type of density    : Electron Density
Multiplicity       :   1
Level              : Relaxed density
Irrep              :   0
Energy             :     0.0000000000000000 Eh
Basis              : AO
                                X                 Y                 Z
Electronic contribution:      4.263723909       2.222062424       3.064251065
Nuclear contribution   :     -3.746345342      -2.443959964      -3.361221900
                        -----------------------------------------
Total Dipole Moment    :      0.517378567      -0.221897540      -0.296970835
                        -----------------------------------------
Magnitude (a.u.)       :      0.636483131
Magnitude (Debye)      :      1.617811550



--------------------
Rotational spectrum 
--------------------
 
Rotational constants in cm-1:             0.168397             0.097342             0.081026 
Rotational constants in MHz :          5048.423456          2918.248265          2429.091753 

Dipole components along the rotational axes: 
x,y,z [a.u.] :     0.103215     0.504814    -0.373658 
x,y,z [Debye]:     0.262353     1.283135    -0.949763 

 

Dipole moment calculation done in   0.0 sec 

Maximum memory used throughout the entire PROP-calculation: 5.8 MB

--------------------------------
SUGGESTED CITATIONS FOR THIS RUN
--------------------------------

Below you find a list of papers that are relevant to this ORCA run
We neither can nor want to force you to cite these papers, but we appreciate if you do
You receive ORCA, which is the product of decades of hard work by many enthusiastic individuals, for free
The only thing we kindly ask in return is that you cite our papers,
We deeply appreciate it, if you show your appreciation for ORCA by not just citing the generic ORCA reference.

Please note that relegating all ORCA citations to the supporting information does *not* help us.
SI sections are not indexed - citations you put there will not count into any citation statistics
But we need these citations in order to attract the funding resources that allow us to do what we are doing

Therefore, if you are a happy ORCA user, please consider citing a few of the papers listed below in the main body of your paper

In addition to the list printed below, the program has created the file 1.bibtex that contains the list in bibtex format
You can import this file easily into all common literature databanks and citation aid programs


List of essential papers. We consider these as the minimum necessary citations

  1. Neese, F.
     Software update: the ORCA program system, version 6.0
     WIRES Comput. Molec. Sci. 2025 15(1), e70019
     doi.org/10.1002/wcms.7019

List of papers to cite with high priority. The work reported in these papers was absolutely
necessary for this run to complete.
Our perspective: the developers of density functionals and basis sets usually get cited in chemistry papers
Good! But without the algorithms to do something with them, the functionals or basis sets would not do anything.
Hence, in our opinion, the algorithm design and method developments papers are equally worthy of getting cited

  1. Neese, F.
     The SHARK Integral Generation and Digestion System
     J. Comp. Chem. 2022 44(3), 381
     doi.org/10.1002/jcc.26942

List of suggested additional citations. These are papers that are important in the 'surrounding' of 
of this run, or papers that preceded the highly important papers. If you like your results we are grateful for a citation.

  1. Neese, F.
     The ORCA program system
     WIRES Comput. Molec. Sci. 2012 2(1), 73-78
     doi.org/10.1002/wcms.81
  2. Neese, F.
     Software update: the ORCA program system, version 4.0
     WIRES Comput. Molec. Sci. 2018 8(1), 1-6
     doi.org/10.1002/wcms.1327
  3. Neese, F.; Wennmohs, F.; Becker, U.; Riplinger, C.
     The ORCA quantum chemistry program package
     J. Chem. Phys. 2020 152(22), 224108
     doi.org/10.1063/5.0004608
  4. Neese, F.
     Software update: The ORCA program system—Version 5.0
     WIRES Comput. Molec. Sci. 2022 12(1), e1606
     doi.org/10.1002/wcms.1606

List of optional additional citations

  1. Neese, F.
     Approximate second-order SCF convergence for spin unrestricted wavefunctions
     Chem. Phys. Lett. 2000 325(1-3), 93-98
     doi.org/10.1016/s0009-2614(00)00662-x

Timings for individual modules:

Sum of individual times          ...      259.106 sec (=   4.318 min)
Startup calculation              ...        3.815 sec (=   0.064 min)   1.5 %
SCF iterations                   ...       67.351 sec (=   1.123 min)  26.0 %
Property calculations            ...        0.038 sec (=   0.001 min)   0.0 %
MP2 module                       ...      187.889 sec (=   3.131 min)  72.5 %
Geometry relaxation              ...        0.014 sec (=   0.000 min)   0.0 %
                             ****ORCA TERMINATED NORMALLY****
TOTAL RUN TIME: 0 days 0 hours 4 minutes 19 seconds 408 msec
