
                                 *****************
                                 * O   R   C   A *
                                 *****************

                                            #,                                       
                                            ###                                      
                                            ####                                     
                                            #####                                    
                                            ######                                   
                                           ########,                                 
                                     ,,################,,,,,                         
                               ,,#################################,,                 
                          ,,##########################################,,             
                       ,#########################################, ''#####,          
                    ,#############################################,,   '####,        
                  ,##################################################,,,,####,       
                ,###########''''           ''''###############################       
              ,#####''   ,,,,##########,,,,          '''####'''          '####       
            ,##' ,,,,###########################,,,                        '##       
           ' ,,###''''                  '''############,,,                           
         ,,##''                                '''############,,,,        ,,,,,,###''
      ,#''                                            '''#######################'''  
     '                                                          ''''####''''         
             ,#######,   #######,   ,#######,      ##                                
            ,#'     '#,  ##    ##  ,#'     '#,    #''#        ,####,    ,#,          
            ##       ##  ##   ,#'  ##            #'  '#       #'       ,# #          
            ##       ##  #######   ##           ,######,      #####,      #          
            '#,     ,#'  ##    ##  '#,     ,#' ,#      #,     #,   #      #          
             '#######'   ##     ##  '#######'  #'      '#     '####' #    #          



                #########################################################
                #                        -***-                          #
                #          Department of theory and spectroscopy        #
                #                                                       #
                #                      Frank Neese                      #
                #                                                       #
                #     Directorship, Architecture, Infrastructure        #
                #                    SHARK, DRIVERS                     #
                #        Core code/Algorithms in most modules           #
                #                                                       #
                #        Max Planck Institute fuer Kohlenforschung      #
                #                Kaiser Wilhelm Platz 1                 #
                #                 D-45470 Muelheim/Ruhr                 #
                #                      Germany                          #
                #                                                       #
                #                  All rights reserved                  #
                #                        -***-                          #
                #########################################################


                         Program Version 6.1.0  -  RELEASE   -
                                (GIT: $679e74b$)
                          ($2025-06-10 18:02:51 +0200$)


 With contributions from (in alphabetic order):
[Max-Planck-Institut fuer Kohlenforschung]                               
  Daniel Aravena         : Magnetic Suceptibility                        
  Michael Atanasov       : Ab Initio Ligand Field Theory (pilot matlab implementation)
  Alexander A. Auer      : GIAO ZORA, VPT2 properties, NMR spectrum      
  Ute Becker             : All parallelization in ORCA, NUMFREQ, NUMCALC 
  Giovanni Bistoni       : ED, misc. LED, open-shell LED, HFLD           
  Dmytro Bykov           : pre 5.0 version of the SCF Hessian            
  Marcos Casanova-Páez   : Triplet and SCS-CIS(D). UHF-(DLPNO)-IP/EA/STEOM-CCSD. UHF-CVS-IP/STEOM-CCSD   
  Vijay G. Chilkuri      : MRCI spin determinant printing, contributions to CSF-ICE 
  Pauline Colinet        : FMM embedding                                 
  Dipayan Datta          : RHF DLPNO-CCSD density                        
  Achintya Kumar Dutta   : EOM-CC, STEOM-CC                              
  Nicolas Foglia         : Exact transition moments, OPA infrastructure, MCD improvements    
  Dmitry Ganyushin       : Spin-Orbit,Spin-Spin,Magnetic field MRCI      
  Miquel Garcia-Rates    : C-PCM and meta-GGA Hessian, CCSD/C-PCM, Gaussian charge scheme 
  Tiago L. C. Gouveia    : GS-ROHF, GS-ROCIS                             
  Yang Guo               : DLPNO-NEVPT2, F12-NEVPT2, CIM, IAO-localization        
  Andreas Hansen         : Spin unrestricted coupled pair/coupled cluster methods 
  Ingolf Harden          : AUTO-CI MPn and infrastructure                
  Benjamin Helmich-Paris : MC-RPA, TRAH-(SCF,CASSCF), AVAS, COSX integrals, SCF dyn. polar., MC-PDFT, srDFT 
  Lee Huntington         : MR-EOM, pCC                                   
  Robert Izsak           : Overlap fitted RIJCOSX, COSX-SCS-MP3, EOM     
  Riya Kayal             : Wick's Theorem for AUTO-CI, AUTO-CI UHF-CCSDT 
  Emily Kempfer          : AUTO-CI RHF CISDT and CCSDT, approximate NEVPT4
  Christian Kollmar      : KDIIS, OOCD, Brueckner-CCSD(T), CCSD density, CASPT2, CASPT2-K, improved NEVPT2 
  Axel Koslowski         : Symmetry handling                             
  Simone Kossmann        : meta-GGA functionals, TD-DFT gradient, OOMP2, (MP2 Hessian; deprecated post 5.0) 
  Lucas Lang             : DCDCAS, Hyperfine gauge corrections, ICE-SOC+SSC
  Marvin Lechner         : AUTO-CI (C++ implementation), FIC-MRCC        
  Spencer Leger          : CASSCF response                               
  Dagmar Lenk            : GEPOL surface, SMD, ORCA-2-JSON               
  Dimitrios Liakos       : Extrapolation schemes; Compound Job, Property file
  Dimitrios Manganas     : Further ROCIS development; embedding schemes. LFT, Crystal Embedding 
  Dimitrios Pantazis     : SARC Basis sets                               
  Anastasios Papadopoulos: AUTO-CI, single reference methods and gradients 
  Taras Petrenko         : pre 6.0 DFT Hessian and TD-DFT gradient,  ECA, NRVS 
  Petra Pikulova         : Analytic Raman intensities                    
  Peter Pinski           : DLPNO-MP2, DLPNO-MP2 Gradient                 
  Shashank Vittal Rao    : ES-AILFT, MagRelax                            
  Christoph Reimann      : Effective Core Potentials                     
  Marius Retegan         : Local ZFS, SOC                                
  Christoph Riplinger    : Optimizer, TS searches, QM/MM, DLPNO-CCSD(T), (RO)-DLPNO pert. Triples 
  Michael Roemelt        : Original ROCIS implementation, recursive CI coupling coefficients
  Masaaki Saitow         : Open-shell DLPNO-CCSD energy and density      
  Barbara Sandhoefer     : DKH picture change effects                    
  Yorick L. A. Schmerwitz: GMF and freeze-and-release deltaSCF, NEB S-IDPP initial path                    
  Kantharuban Sivalingam : CASSCF convergence/infrastructure, NEVPT2, NEVPT3, NEVPT4(SD), FIC-MRCI and CEPA variants
  Bernardo de Souza      : ESD, SOC TD-DFT                               
  Georgi L. Stoychev     : AutoAux, RI-MP2 NMR, DLPNO-MP2 response, X2C  
  Van Anh Tran           : RI-MP2 g-tensors                              
  Willem Van den Heuvel  : Paramagnetic NMR                              
  Zikuan Wang            : NOTCH, Electric field optimization            
  Frank Wennmohs         : Technical directorship and infrastructure     
  Hang Xu                : AUTO-CI-Response properties                   
                                                                         
[FACCTs GmbH]                                                            
  Markus Bursch, Nicolas Foglia, Miquel Garcia-Rates, Ingolf Harden, Hagen Neugebauer, Anastasios Papadopoulos, 
  Christoph Riplinger, Bernardo de Souza, Georgi L. Stoychev                                                    
                                                                 
  APM, various basis sets, CI-OPT, improved COSX, DLPNO-Multilevel,           
  DOCKER, DRACO, updates on ESD, Fragmentator, GOAT, IRC, LR-CPCM, L-BFGS, MBIS, meta-GGA TD-DFT gradient, ML-optimized integration grids, 
  MM, NACMEs, nearIR, NEB, NEB-TS, NL-DFT gradient (VV10), 2- and 3-layer-ONIOM, interface openCOSMO-RS, QMMM,   
  Crystal-QMMM, RESP, rigid body optimization, SF, symmetry and pop. for TD-DFT, various functionals, SOLVATOR                                   
                                                                         
[Other institutions]                                                     
  V. Asgeirsson          : NEB                                           
  Christoph Bannwarth    : sTDA-DFT, sTD-DFT, PBEh-3c, B97-3c, D3        
  Giovanni Bistoni       : ETS/NOCV, ADLD/ADEX, COVALED                  
  Martin Brehm           : Molecular dynamics                            
  Ronald Cardenas        : ETS/NOCV                                      
  Martina Colucci        : COVALED                                       
  Sebastian Ehlert       : rSCAN, r2SCAN, r2SCAN-3c, D4, dhf basis sets  
  Marvin Friede          : D4 for Fr, Ra, Ac-Lr                          
  Lars Goerigk           : TD-DFT with DH, B97 family of functionals     
  Stefan Grimme          : VdW corrections, initial TS optimization, DFT functionals, gCP, sTDA/sTD-DF 
  Waldemar Hujo          : DFT-NL                                        
  H. Jonsson             : NEB                                           
  Holger Kruse           : gCP                                           
  Marcel Mueller         : wB97X-3c, vDZP basis set                      
  Hagen Neugebauer       : wr2SCAN, Native XTB                           
  Gianluca Regni         : ADLD/ADEX                                     
  Tobias Risthaus        : pre 6.0 range-separated hybrid DFT and stability analysis
  Lukas Wittmann         : regularized MP2, r2SCAN double-hybrids, wr2SCAN        
                                                                         
We gratefully acknowledge several colleagues who have allowed us to      
interface, adapt or use parts of their codes:                            
  Ed Valeev, F. Pavosevic, A. Kumar             : LibInt (2-el integral package), F12 methods 
  Garnet Chan, S. Sharma, J. Yang, R. Olivares  : DMRG                   
  Ulf Ekstrom                                   : XCFun DFT Library      
  Mihaly Kallay                                 : mrcc  (arbitrary order and MRCC methods)
  Frank Weinhold                                : gennbo (NPA and NBO analysis)           
  Simon Mueller                                 : openCOSMO-RS                            
  Christopher J. Cramer and Donald G. Truhlar   : smd solvation model                     
  S Lehtola, MJT Oliveira, MAL Marques          : LibXC Library                           
  Liviu Ungur et al                             : ANISO software                          


 Your calculation uses the libint2 library for the computation of 2-el integrals
 For citations please refer to: http://libint.valeyev.net

 Your ORCA version has been built with support for libXC version: 7.0.0
 For citations please refer to: https://libxc.gitlab.io

 This ORCA versions uses:
   CBLAS   interface :  Fast vector & matrix operations
   LAPACKE interface :  Fast linear algebra routines
   SCALAPACK package :  Parallel linear algebra routines
   Shared memory     :  Shared parallel matrices
   BLAS/LAPACK       :  OpenBLAS 0.3.29  USE64BITINT DYNAMIC_ARCH NO_AFFINITY Haswell SINGLE_THREADED
        Core in use  :  Haswell
   Copyright (c) 2011-2014, The OpenBLAS Project


  ***********************************
  * Starting time: Thu Aug 14 00:57:19 2025
  * Host name:     CHEMLAB02
  * Process ID:    1542878
  * Working dir.:  /home/vivek/mm-project/vivek/MP2/f/3
  ***********************************



***************************************
The coordinates will be read from file: /home/vivek/mm-project/vivek/xtb-goat/f/F_CONF/3.xyz
***************************************


================================================================================

----- Orbital basis set information -----
Your calculation utilizes the basis: 6-31G**
   H-He, Li-Ne : W. J. Hehre, R. Ditchfield and J.A. Pople, J. Chem. Phys. 56, 2257 (1972).
                 Note: He and Ne are unpublished basis sets taken from the Gaussian program.
                 Note: Li and B from J. D. Dill and J. A. Pople, J. Chem. Phys. 62, 2921 (1975).
   Na - Ar     : M. M. Francl, W. J. Pietro, W. J. Hehre, J. S. Binkley, M. S. Gordon, 
                 D. J. DeFrees and J. A. Pople, J. Chem. Phys. 77, 3654 (1982).
   K - Zn      : V. A. Rassolov, J. A. Pople, M. A. Ratner, and T. L. Windus, J. Chem. Phys. 109, 1223 (1998).

================================================================================
                                        WARNINGS
                       Please study these warnings very carefully!
================================================================================


WARNING: No MP2 level density has been requested!
         To calculate MP2 level properties use
         %mp2 Density relaxed end
         or
         %mp2 Density unrelaxed end

WARNING: Post HF methods need fully converged wavefunctions
  ===> : Setting SCFConvForced true
         You can overwrite this default with %scf ConvForced false 


================================================================================
                                       INPUT FILE
================================================================================
NAME = 3.inp
|  1> ! MP2 6-31G** 
|  2> 
|  3> * xyzfile 0 1 /home/vivek/mm-project/vivek/xtb-goat/f/F_CONF/3.xyz
|  4> 
|  5>                          ****END OF INPUT****
================================================================================

                       ****************************
                       * Single Point Calculation *
                       ****************************

---------------------------------
CARTESIAN COORDINATES (ANGSTROEM)
---------------------------------
  C     -6.578871    1.045268   -1.328721
  C     -5.405362    0.858466   -2.038811
  C     -5.319806    1.118969    0.710338
  H     -7.445733    1.321641    0.609007
  H     -5.288472    1.221553    1.786220
  C     -4.192617    0.799519   -1.375515
  C     -2.822941    0.897514    0.728284
  H     -5.435321    0.758233   -3.114026
  C     -4.138554    0.926424    0.005555
  H     -7.526046    1.089487   -1.846107
  C     -6.533473    1.175592    0.048776
  H     -3.278714    0.659782   -1.931973
  C     -2.221875    2.320386    0.798711
  H     -2.959650    0.527563    1.745566
  H     -2.116402    0.250483    0.205078
  C     -1.018518    2.281392    1.733006
  H     -0.576168    2.108623    3.581677
  N     -1.876367    2.778368   -0.528885
  O     -1.365607    2.150518    3.017950
  H     -1.614625    3.757786   -0.511959
  O      0.126047    2.348042    1.368948
  H     -2.971996    2.993494    1.227215
  H     -1.070432    2.258737   -0.864664

----------------------------
CARTESIAN COORDINATES (A.U.)
----------------------------
  NO LB      ZA    FRAG     MASS         X           Y           Z
   0 C     6.0000    0    12.011  -12.432264    1.975270   -2.510919
   1 C     6.0000    0    12.011  -10.214654    1.622266   -3.852795
   2 C     6.0000    0    12.011  -10.052976    2.114545    1.342345
   3 H     1.0000    0     1.008  -14.070397    2.497540    1.150857
   4 H     1.0000    0     1.008   -9.993763    2.308401    3.375467
   5 C     6.0000    0    12.011   -7.922898    1.510871   -2.599346
   6 C     6.0000    0    12.011   -5.334586    1.696056    1.376258
   7 H     1.0000    0     1.008  -10.271269    1.432853   -5.884657
   8 C     6.0000    0    12.011   -7.820735    1.750687    0.010497
   9 H     1.0000    0     1.008  -14.222165    2.058832   -3.488636
  10 C     6.0000    0    12.011  -12.346474    2.221547    0.092173
  11 H     1.0000    0     1.008   -6.195872    1.246807   -3.650900
  12 C     6.0000    0    12.011   -4.198736    4.384895    1.509344
  13 H     1.0000    0     1.008   -5.592928    0.996950    3.298643
  14 H     1.0000    0     1.008   -3.999420    0.473345    0.387540
  15 C     6.0000    0    12.011   -1.924720    4.311207    3.274907
  16 H     1.0000    0     1.008   -1.088800    3.984719    6.768389
  17 N     7.0000    0    14.007   -3.545820    5.250355   -0.999449
  18 O     8.0000    0    15.999   -2.580623    4.063889    5.703098
  19 H     1.0000    0     1.008   -3.051199    7.101186   -0.967461
  20 O     8.0000    0    15.999    0.238195    4.437157    2.586937
  21 H     1.0000    0     1.008   -5.616259    5.656884    2.319099
  22 H     1.0000    0     1.008   -2.022823    4.268395   -1.633979

--------------------------------
INTERNAL COORDINATES (ANGSTROEM)
--------------------------------
 C      0   0   0     0.000000000000     0.00000000     0.00000000
 C      1   0   0     1.384284945262     0.00000000     0.00000000
 C      1   2   0     2.397590527485    89.72654269     0.00000000
 H      3   1   2     2.137969319341    55.97363414   179.99753158
 H      3   1   2     1.081215911896   149.81445782   179.95601820
 C      2   1   3     1.383541887220   120.19260436     0.12503230
 C      3   1   2     2.506730364370   121.76549138     0.70237538
 H      2   1   3     1.080292331848   119.97123309   180.12137357
 C      6   2   1     1.387940948750   120.48367877     0.00000000
 H      1   2   3     1.080177458847   120.21044408   179.98947382
 C      4   3   1     1.080467288726    34.12619773     0.00000000
 H      6   2   1     1.079069311292   120.04446015   180.36888533
 C      7   3   1     1.546223029605   107.83225420    97.80745766
 H      7   3   1     1.091061693336    84.94135147   205.69552242
 H      7   3   1     1.091600586469   133.91866762   317.44256732
 C     13   7   3     1.523974272861   108.13921881   140.47743037
 H     16  13   7     1.908692311818   141.17831977   288.76527356
 N     13   7   3     1.446248365624   110.02705183   263.67466462
 O     17  16  13     0.970956656487    41.00370810   358.07957081
 H     18  13   7     1.013930084904   110.62415765   171.37935287
 O     16  13   7     1.202917303469   124.35751121   107.15360874
 H     13   7   3     1.095157706372   108.49077897    23.02866700
 H     18  13   7     1.016019546469   109.32443746   289.13789090

---------------------------
INTERNAL COORDINATES (A.U.)
---------------------------
 C      0   0   0     0.000000000000     0.00000000     0.00000000
 C      1   0   0     2.615919437855     0.00000000     0.00000000
 C      1   2   0     4.530789478231    89.72654269     0.00000000
 H      3   1   2     4.040176496280    55.97363414   179.99753158
 H      3   1   2     2.043201965121   149.81445782   179.95601820
 C      2   1   3     2.614515261655   120.19260436     0.12503230
 C      3   1   2     4.737033880243   121.76549138     0.70237538
 H      2   1   3     2.041456651769   119.97123309   180.12137357
 C      6   2   1     2.622828283192   120.48367877     0.00000000
 H      1   2   3     2.041239573256   120.21044408   179.98947382
 C      4   3   1     2.041787272353    34.12619773     0.00000000
 H      6   2   1     2.039145477860   120.04446015   180.36888533
 C      7   3   1     2.921938067915   107.83225420    97.80745766
 H      7   3   1     2.061807795617    84.94135147   205.69552242
 H      7   3   1     2.062826156053   133.91866762   317.44256732
 C     13   7   3     2.879894010849   108.13921881   140.47743037
 H     16  13   7     3.606905743256   141.17831977   288.76527356
 N     13   7   3     2.733013332661   110.02705183   263.67466462
 O     17  16  13     1.834842168669    41.00370810   358.07957081
 H     18  13   7     1.916050179412   110.62415765   171.37935287
 O     16  13   7     2.273184265311   124.35751121   107.15360874
 H     13   7   3     2.069548138496   108.49077897    23.02866700
 H     18  13   7     1.919998689537   109.32443746   289.13789090

---------------------
BASIS SET INFORMATION
---------------------
There are 4 groups of distinct atoms

 Group   1 Type C   : 10s4p1d contracted to 3s2p1d pattern {631/31/1}
 Group   2 Type H   : 4s1p contracted to 2s1p pattern {31/1}
 Group   3 Type N   : 10s4p1d contracted to 3s2p1d pattern {631/31/1}
 Group   4 Type O   : 10s4p1d contracted to 3s2p1d pattern {631/31/1}

Atom   0C    basis set group =>   1
Atom   1C    basis set group =>   1
Atom   2C    basis set group =>   1
Atom   3H    basis set group =>   2
Atom   4H    basis set group =>   2
Atom   5C    basis set group =>   1
Atom   6C    basis set group =>   1
Atom   7H    basis set group =>   2
Atom   8C    basis set group =>   1
Atom   9H    basis set group =>   2
Atom  10C    basis set group =>   1
Atom  11H    basis set group =>   2
Atom  12C    basis set group =>   1
Atom  13H    basis set group =>   2
Atom  14H    basis set group =>   2
Atom  15C    basis set group =>   1
Atom  16H    basis set group =>   2
Atom  17N    basis set group =>   3
Atom  18O    basis set group =>   4
Atom  19H    basis set group =>   2
Atom  20O    basis set group =>   4
Atom  21H    basis set group =>   2
Atom  22H    basis set group =>   2
------------------------------------------------------------------------------
                             ORCA STARTUP CALCULATIONS
------------------------------------------------------------------------------
------------------------------------------------------------------------------
                   ___                                                        
                  /   \      - P O W E R E D   B Y -                         
                 /     \                                                     
                 |  |  |   _    _      __       _____    __    __             
                 |  |  |  | |  | |    /  \     |  _  \  |  |  /  |          
                  \  \/   | |  | |   /    \    | | | |  |  | /  /          
                 / \  \   | |__| |  /  /\  \   | |_| |  |  |/  /          
                |  |  |   |  __  | /  /__\  \  |    /   |      \           
                |  |  |   | |  | | |   __   |  |    \   |  |\   \          
                \     /   | |  | | |  |  |  |  | |\  \  |  | \   \       
                 \___/    |_|  |_| |__|  |__|  |_| \__\ |__|  \__/        
                                                                              
                      - O R C A' S   B I G   F R I E N D -                    
                                      &                                       
                       - I N T E G R A L  F E E D E R -                       
                                                                              
 v1 FN, 2020, v2 2021, v3 2022-2024                                           
------------------------------------------------------------------------------


----------------------
SHARK INTEGRAL PACKAGE
----------------------

Number of atoms                             ...     23
Number of basis functions                   ...    223
Number of shells                            ...    105
Maximum angular momentum                    ...      2
Integral batch strategy                     ... SHARK/LIBINT Hybrid
RI-J (if used) integral strategy            ... SPLIT-RIJ (Revised 2003 algorithm where possible)
Printlevel                                  ...      1
Contraction scheme used                     ... SEGMENTED contraction
Prescreening option                         ... SCHWARTZ
   Thresh                                   ... 1.000e-10
   Tcut                                     ... 1.000e-11
   Tpresel                                  ... 1.000e-11 
Coulomb Range Separation                    ... NOT USED
Exchange Range Separation                   ... NOT USED
Multipole approximations                    ... NOT USED
Finite Nucleus Model                        ... NOT USED
CABS basis                                  ... NOT available
Auxiliary Coulomb fitting basis             ... NOT available
Auxiliary J/K fitting basis                 ... NOT available
Auxiliary Correlation fitting basis         ... NOT available
Auxiliary 'external' fitting basis          ... NOT available

Checking pre-screening integrals            ... done (  0.0 sec) Dimension = 105
   => SHARK Basis and OBASIS are compatible. Storing Pre-screening
Shell pair information
Shell pair cut-off parameter TPreSel        ...   1.0e-11
Total number of shell pairs                 ...      5565
Shell pairs after pre-screening             ...      4586
Total number of primitive shell pairs       ...     28015
Primitive shell pairs kept                  ...     14549
          la=0 lb=0:   1413 shell pairs
          la=1 lb=0:   1678 shell pairs
          la=1 lb=1:    533 shell pairs
          la=2 lb=0:    558 shell pairs
          la=2 lb=1:    342 shell pairs
          la=2 lb=2:     62 shell pairs

Checking whether 4 symmetric matrices of dimension 223 fit in memory
:Max Core in MB      =   4096.00
 MB in use           =      7.39
 MB left             =   4088.61
 MB needed           =      0.76
 Data fit in memory  = YES
Calculating Nuclear repulsion               ... done (  0.0 sec) ENN=    672.485355895184 Eh

Diagonalization of the overlap matrix:
Smallest eigenvalue                        ... 4.359e-04
Time for diagonalization                   ...    0.003 sec
Threshold for overlap eigenvalues          ... 1.000e-07
Number of eigenvalues below threshold      ... 0
Time for construction of square roots      ...    0.001 sec
Total time needed                          ...    0.004 sec

-------------------
DFT GRID GENERATION
-------------------

General Integration Accuracy     IntAcc      ... 4.388
Radial Grid Type                 RadialGrid  ... OptM3 with GC (2021)
Angular Grid (max. ang.)         AngularGrid ... 4 (Lebedev-302)
Angular grid pruning method      GridPruning ... 4 (adaptive)
Weight generation scheme         WeightScheme... mBecke (2022)
Basis function cutoff            BFCut       ... 1.0000e-10
Integration weight cutoff        WCut        ... 1.0000e-14
Partially contracted basis set               ... off
Rotationally invariant grid construction     ... off
Angular grids for H and He will be reduced by one unit

Total number of grid points                  ...   107229
Total number of batches                      ...     1687
Average number of points per batch           ...       63
Average number of grid points per atom       ...     4662
Grids setup in   0.5 sec
Initializing property integral containers    ... done (  0.0 sec)

SHARK setup successfully completed in   0.5 seconds

Maximum memory used throughout the entire STARTUP-calculation: 43.0 MB
-------------------------------------------------------------------------------
                                 ORCA GUESS
                   Start orbitals & Density for SCF / CASSCF
-------------------------------------------------------------------------------

------------
SCF SETTINGS
------------
Hamiltonian:
 Ab initio Hamiltonian  Method          .... Hartree-Fock(GTOs)


General Settings:
 Integral files         IntName         .... 3
 Hartree-Fock type      HFTyp           .... RHF
 Total Charge           Charge          ....    0
 Multiplicity           Mult            ....    1
 Number of Electrons    NEL             ....   88
 Basis Dimension        Dim             ....  223
 Nuclear Repulsion      ENuc            ....    672.4853558952 Eh

Convergence Acceleration:
 AO-DIIS                CNVDIIS         .... on
   Start iteration      DIISMaxIt       ....    12
   Startup error        DIISStart       ....  0.200000
   # of expansion vecs  DIISMaxEq       ....     5
   Bias factor          DIISBfac        ....   1.050
   Max. coefficient     DIISMaxC        ....  10.000
 MO-DIIS                CNVKDIIS        .... off
 Trust-Rad. Augm. Hess. CNVTRAH         .... auto
   Auto Start mean grad. ratio tolernc. ....  1.125000
   Auto Start start iteration           ....    50
   Auto Start num. interpolation iter.  ....    10
   Max. Number of Micro iterations      ....    24
   Max. Number of Macro iterations      .... Maxiter - #DIIS iter
   Number of Davidson start vectors     ....     2
   Converg. threshold    (grad. norm)   ....   5.000e-05
   Grad. Scal. Fac. for Micro threshold ....   0.100
   Minimum threshold for Micro iter.    ....   1.000e-02
   NR start threshold (gradient norm)   ....   1.000e-04
   Initial trust radius                 ....   0.400
   Minimum AH scaling param. (alpha)    ....   1.000
   Maximum AH scaling param. (alpha)    .... 1000.000
   Quad. conv. algorithm                .... NR
   White noise on init. David. guess    .... on
   Maximum white noise                  ....   0.010
   Pseudo random numbers                .... off
   Inactive MOs                         .... canonical
   Orbital update algorithm             .... Taylor
   Preconditioner                       .... Diag
   Full preconditioner red. dimension   ....   250
 SOSCF                 CNVSOSCF           .... on
   Start iteration     SOSCFMaxIt         ....   150
   Startup grad/error  SOSCFStart         ....  0.003300
   Hessian update      SOSCFHessUp        .... L-BFGS
   Autom. constraints  SOSCFAutoConstrain .... off
 Level Shifting         CNVShift        .... on
   Level shift para.    LevelShift      ....    0.2500
   Turn off err/grad.   ShiftErr        ....    0.0010
 Zerner damping         CNVZerner       .... off
 Static damping         CNVDamp         .... on
   Fraction old density DampFac         ....    0.7000
   Max. Damping (<1)    DampMax         ....    0.9800
   Min. Damping (>=0)   DampMin         ....    0.0000
   Turn off err/grad.   DampErr         ....    0.1000

SCF Procedure:
 Maximum # iterations   MaxIter         ....   125
 SCF integral mode      SCFMode         .... Direct
   Integral package                     .... SHARK and LIBINT hybrid scheme
 Reset frequency        DirectResetFreq ....    20
 Integral Threshold     Thresh          ....  1.000e-10 Eh
 Primitive CutOff       TCut            ....  1.000e-11 Eh

Convergence Tolerance:
 Convergence Check Mode ConvCheckMode   .... Total+1el-Energy
 Convergence forced     ConvForced      .... 1
 Energy Change          TolE            ....  1.000e-06 Eh
 1-El. energy change                    ....  1.000e-03 Eh
 Orbital Gradient       TolG            ....  5.000e-05
 Orbital Rotation angle TolX            ....  5.000e-05
 DIIS Error             TolErr          ....  1.000e-06

------------------------------
INITIAL GUESS: MODEL POTENTIAL
------------------------------
Loading Hartree-Fock densities                     ... done
Calculating cut-offs                               ... done
Initializing the effective Hamiltonian             ... done
Setting up the integral package (SHARK)            ... done
Starting the Coulomb interaction                   ... done (   0.1 sec)
Making the grid                                    ... done (   0.1 sec)
Mapping shells                                     ... done
Starting the XC term evaluation                    ... done (   0.1 sec)
Transforming the Hamiltonian                       ... done (   0.0 sec)
Diagonalizing the Hamiltonian                      ... done (   0.0 sec)
Back transforming the eigenvectors                 ... done (   0.0 sec)
Now organizing SCF variables                       ... done
                      ------------------
                      INITIAL GUESS DONE (   0.3 sec)
                      ------------------
             **** ENERGY FILE WAS UPDATED (3.en.tmp) ****
Finished Guess after   0.3 sec
Maximum memory used throughout the entire GUESS-calculation: 13.6 MB

-------------------------------------------------------------------------------------------
                                      ORCA LEAN-SCF
                              memory conserving SCF solver
-------------------------------------------------------------------------------------------

----------------------------------------D-I-I-S--------------------------------------------
Iteration    Energy (Eh)           Delta-E    RMSDP     MaxDP     DIISErr   Damp  Time(sec)
-------------------------------------------------------------------------------------------
               ***  Starting incremental Fock matrix formation  ***
    1    -550.9482021013252506     0.00e+00  2.48e-03  6.37e-02  2.58e-01  0.700   2.9
    2    -551.1197571889972551    -1.72e-01  1.90e-03  4.60e-02  1.60e-01  0.700   2.7
                               ***Turning on AO-DIIS***
    3    -551.2226023446469299    -1.03e-01  1.17e-03  2.07e-02  9.18e-02  0.700   2.6
    4    -551.2880769299335952    -6.55e-02  2.80e-03  4.98e-02  6.62e-02  0.000   2.7
    5    -551.4342627175744838    -1.46e-01  2.87e-04  7.79e-03  7.66e-03  0.000   2.8
    6    -551.4347961841313008    -5.33e-04  1.30e-04  3.46e-03  3.90e-03  0.000   2.6
                              *** Initializing SOSCF ***
---------------------------------------S-O-S-C-F--------------------------------------
Iteration    Energy (Eh)           Delta-E    RMSDP     MaxDP     MaxGrad    Time(sec)
--------------------------------------------------------------------------------------
    7    -551.4349090892576442    -1.13e-04  6.68e-05  2.71e-03  2.72e-03     2.4
               *** Restarting incremental Fock matrix formation ***
    8    -551.4349419196519193    -3.28e-05  3.27e-05  9.69e-04  6.61e-04     3.0
    9    -551.4349498053979914    -7.89e-06  3.48e-05  1.59e-03  4.11e-04     2.2
   10    -551.4349526826370038    -2.88e-06  6.24e-06  2.82e-04  1.22e-04     2.2
   11    -551.4349529118337614    -2.29e-07  2.37e-06  8.71e-05  3.77e-05     1.9
                 **** Energy Check signals convergence ****

               *****************************************************
               *                     SUCCESS                       *
               *           SCF CONVERGED AFTER  11 CYCLES          *
               *****************************************************

             **** ENERGY FILE WAS UPDATED (3.en.tmp) ****

----------------
TOTAL SCF ENERGY
----------------

Total Energy       :       -551.43495295377397 Eh          -15005.30792 eV

Components:
Nuclear Repulsion  :        672.48535589518383 Eh           18299.25685 eV
Electronic Energy  :      -1223.92030884895780 Eh          -33304.56478 eV
One Electron Energy:      -2085.86208037926872 Eh          -56759.19279 eV
Two Electron Energy:        861.94177153031092 Eh           23454.62801 eV

Virial components:
Potential Energy   :      -1102.44386597827133 Eh          -29999.02271 eV
Kinetic Energy     :        551.00891302449736 Eh           14993.71479 eV
Virial Ratio       :          2.00077319970550

---------------
SCF CONVERGENCE
---------------

  Last Energy change         ...    2.2920e-07  Tolerance :   1.0000e-06
  Last MAX-Density change    ...    8.7101e-05  Tolerance :   1.0000e-05
  Last RMS-Density change    ...    2.3737e-06  Tolerance :   1.0000e-06
  Last DIIS Error            ...    2.7171e-03  Tolerance :   1.0000e-06
  Last Orbital Gradient      ...    3.7695e-05  Tolerance :   5.0000e-05
  Last Orbital Rotation      ...    3.5627e-05  Tolerance :   5.0000e-05


----------------
ORBITAL ENERGIES
----------------

  NO   OCC          E(Eh)            E(eV) 
   0   2.0000     -20.620889      -561.1229 
   1   2.0000     -20.556520      -559.3713 
   2   2.0000     -15.547843      -423.0783 
   3   2.0000     -11.384206      -309.7800 
   4   2.0000     -11.276971      -306.8620 
   5   2.0000     -11.237211      -305.7801 
   6   2.0000     -11.230659      -305.6018 
   7   2.0000     -11.225012      -305.4481 
   8   2.0000     -11.223590      -305.4094 
   9   2.0000     -11.223128      -305.3968 
  10   2.0000     -11.222070      -305.3680 
  11   2.0000     -11.220223      -305.3178 
  12   2.0000      -1.471294       -40.0359 
  13   2.0000      -1.365185       -37.1486 
  14   2.0000      -1.201460       -32.6934 
  15   2.0000      -1.149731       -31.2858 
  16   2.0000      -1.055212       -28.7138 
  17   2.0000      -1.008135       -27.4328 
  18   2.0000      -0.986625       -26.8474 
  19   2.0000      -0.904066       -24.6009 
  20   2.0000      -0.821320       -22.3493 
  21   2.0000      -0.809810       -22.0361 
  22   2.0000      -0.787407       -21.4264 
  23   2.0000      -0.714281       -19.4366 
  24   2.0000      -0.703013       -19.1299 
  25   2.0000      -0.687087       -18.6966 
  26   2.0000      -0.671616       -18.2756 
  27   2.0000      -0.639441       -17.4001 
  28   2.0000      -0.626144       -17.0382 
  29   2.0000      -0.621741       -16.9184 
  30   2.0000      -0.594873       -16.1873 
  31   2.0000      -0.586348       -15.9553 
  32   2.0000      -0.577773       -15.7220 
  33   2.0000      -0.556927       -15.1547 
  34   2.0000      -0.534522       -14.5451 
  35   2.0000      -0.515868       -14.0375 
  36   2.0000      -0.490150       -13.3377 
  37   2.0000      -0.484116       -13.1735 
  38   2.0000      -0.480151       -13.0656 
  39   2.0000      -0.476467       -12.9653 
  40   2.0000      -0.452587       -12.3155 
  41   2.0000      -0.401723       -10.9314 
  42   2.0000      -0.327016        -8.8986 
  43   2.0000      -0.318862        -8.6767 
  44   0.0000       0.146301         3.9811 
  45   0.0000       0.151982         4.1356 
  46   0.0000       0.187225         5.0947 
  47   0.0000       0.217943         5.9305 
  48   0.0000       0.230849         6.2817 
  49   0.0000       0.248178         6.7533 
  50   0.0000       0.261256         7.1091 
  51   0.0000       0.281913         7.6712 
  52   0.0000       0.303977         8.2716 
  53   0.0000       0.321115         8.7380 
  54   0.0000       0.325412         8.8549 
*Only the first 10 virtual orbitals were printed.

                    ********************************
                    * MULLIKEN POPULATION ANALYSIS *
                    ********************************

-----------------------
MULLIKEN ATOMIC CHARGES
-----------------------
   0 C :   -0.153786
   1 C :   -0.150483
   2 C :   -0.157450
   3 H :    0.145795
   4 H :    0.142862
   5 C :   -0.113140
   6 C :   -0.255916
   7 H :    0.146674
   8 C :    0.001940
   9 H :    0.145428
  10 C :   -0.144742
  11 H :    0.146211
  12 C :   -0.022047
  13 H :    0.153818
  14 H :    0.135957
  15 C :    0.777248
  16 H :    0.372994
  17 N :   -0.673819
  18 O :   -0.637075
  19 H :    0.277434
  20 O :   -0.584655
  21 H :    0.166029
  22 H :    0.280724
Sum of atomic charges:    0.0000000

--------------------------------
MULLIKEN REDUCED ORBITAL CHARGES
--------------------------------
  0 C s       :     3.145042  s :     3.145042
      pz      :     0.946939  p :     2.964054
      px      :     1.022406
      py      :     0.994709
      dz2     :     0.012044  d :     0.044690
      dxz     :     0.015384
      dyz     :     0.006449
      dx2y2   :     0.006638
      dxy     :     0.004176

  1 C s       :     3.145956  s :     3.145956
      pz      :     1.055172  p :     2.959557
      px      :     0.918298
      py      :     0.986087
      dz2     :     0.012840  d :     0.044970
      dxz     :     0.013830
      dyz     :     0.003326
      dx2y2   :     0.007320
      dxy     :     0.007653

  2 C s       :     3.136227  s :     3.136227
      pz      :     1.057960  p :     2.976698
      px      :     0.911502
      py      :     1.007236
      dz2     :     0.012842  d :     0.044525
      dxz     :     0.013625
      dyz     :     0.003183
      dx2y2   :     0.007311
      dxy     :     0.007564

  3 H s       :     0.840456  s :     0.840456
      pz      :     0.003734  p :     0.013749
      px      :     0.007473
      py      :     0.002542

  4 H s       :     0.843366  s :     0.843366
      pz      :     0.009752  p :     0.013773
      px      :     0.001489
      py      :     0.002532

  5 C s       :     3.129822  s :     3.129822
      pz      :     0.942927  p :     2.938699
      px      :     1.015318
      py      :     0.980454
      dz2     :     0.012061  d :     0.044618
      dxz     :     0.015296
      dyz     :     0.006179
      dx2y2   :     0.006430
      dxy     :     0.004653

  6 C s       :     3.234567  s :     3.234567
      pz      :     1.076716  p :     2.972939
      px      :     0.969864
      py      :     0.926359
      dz2     :     0.010699  d :     0.048410
      dxz     :     0.009757
      dyz     :     0.007064
      dx2y2   :     0.009264
      dxy     :     0.011626

  7 H s       :     0.839594  s :     0.839594
      pz      :     0.009808  p :     0.013732
      px      :     0.001494
      py      :     0.002430

  8 C s       :     3.118975  s :     3.118975
      pz      :     0.933791  p :     2.827398
      px      :     0.931368
      py      :     0.962239
      dz2     :     0.013660  d :     0.051687
      dxz     :     0.016870
      dyz     :     0.007130
      dx2y2   :     0.007547
      dxy     :     0.006479

  9 H s       :     0.840807  s :     0.840807
      pz      :     0.003404  p :     0.013765
      px      :     0.007924
      py      :     0.002437

 10 C s       :     3.144000  s :     3.144000
      pz      :     0.953417  p :     2.955759
      px      :     1.014462
      py      :     0.987880
      dz2     :     0.011786  d :     0.044984
      dxz     :     0.015667
      dyz     :     0.006546
      dx2y2   :     0.006384
      dxy     :     0.004601

 11 H s       :     0.839916  s :     0.839916
      pz      :     0.003749  p :     0.013873
      px      :     0.007638
      py      :     0.002487

 12 C s       :     3.204707  s :     3.204707
      pz      :     0.802352  p :     2.746574
      px      :     0.938993
      py      :     1.005229
      dz2     :     0.016418  d :     0.070766
      dxz     :     0.022428
      dyz     :     0.011325
      dx2y2   :     0.009320
      dxy     :     0.011275

 13 H s       :     0.833572  s :     0.833572
      pz      :     0.008347  p :     0.012610
      px      :     0.001695
      py      :     0.002569

 14 H s       :     0.851569  s :     0.851569
      pz      :     0.003354  p :     0.012474
      px      :     0.004699
      py      :     0.004421

 15 C s       :     2.952225  s :     2.952225
      pz      :     0.669168  p :     2.124584
      px      :     0.830628
      py      :     0.624787
      dz2     :     0.037776  d :     0.145944
      dxz     :     0.049567
      dyz     :     0.016819
      dx2y2   :     0.018028
      dxy     :     0.023754

 16 H s       :     0.585499  s :     0.585499
      pz      :     0.013130  p :     0.041507
      px      :     0.019529
      py      :     0.008847

 17 N s       :     3.598849  s :     3.598849
      pz      :     1.326652  p :     4.040523
      px      :     1.530387
      py      :     1.183484
      dz2     :     0.012462  d :     0.034448
      dxz     :     0.003005
      dyz     :     0.004090
      dx2y2   :     0.006283
      dxy     :     0.008608

 18 O s       :     3.836361  s :     3.836361
      pz      :     1.311019  p :     4.775430
      px      :     1.618221
      py      :     1.846190
      dz2     :     0.006252  d :     0.025284
      dxz     :     0.009660
      dyz     :     0.003082
      dx2y2   :     0.004306
      dxy     :     0.001984

 19 H s       :     0.696323  s :     0.696323
      pz      :     0.004802  p :     0.026243
      px      :     0.006395
      py      :     0.015047

 20 O s       :     3.871816  s :     3.871816
      pz      :     1.795839  p :     4.680124
      px      :     1.408838
      py      :     1.475447
      dz2     :     0.003661  d :     0.032715
      dxz     :     0.008068
      dyz     :     0.001270
      dx2y2   :     0.007565
      dxy     :     0.012151

 21 H s       :     0.821783  s :     0.821783
      pz      :     0.002294  p :     0.012188
      px      :     0.005541
      py      :     0.004353

 22 H s       :     0.693110  s :     0.693110
      pz      :     0.006646  p :     0.026166
      px      :     0.012492
      py      :     0.007028



                     *******************************
                     * LOEWDIN POPULATION ANALYSIS *
                     *******************************

----------------------
LOEWDIN ATOMIC CHARGES
----------------------
   0 C :   -0.080528
   1 C :   -0.072304
   2 C :   -0.083856
   3 H :    0.074099
   4 H :    0.071350
   5 C :   -0.061647
   6 C :   -0.095485
   7 H :    0.074635
   8 C :   -0.016662
   9 H :    0.073866
  10 C :   -0.074102
  11 H :    0.075032
  12 C :   -0.021425
  13 H :    0.077310
  14 H :    0.071639
  15 C :    0.226342
  16 H :    0.201814
  17 N :   -0.269007
  18 O :   -0.210699
  19 H :    0.132468
  20 O :   -0.310300
  21 H :    0.083980
  22 H :    0.133480

-------------------------------
LOEWDIN REDUCED ORBITAL CHARGES
-------------------------------
  0 C s       :     2.886042  s :     2.886042
      pz      :     1.059988  p :     3.100467
      px      :     1.057539
      py      :     0.982940
      dz2     :     0.027513  d :     0.094019
      dxz     :     0.034511
      dyz     :     0.012796
      dx2y2   :     0.012014
      dxy     :     0.007185

  1 C s       :     2.886136  s :     2.886136
      pz      :     1.056724  p :     3.091797
      px      :     1.063074
      py      :     0.971999
      dz2     :     0.026380  d :     0.094371
      dxz     :     0.031275
      dyz     :     0.004965
      dx2y2   :     0.016206
      dxy     :     0.015545

  2 C s       :     2.883929  s :     2.883929
      pz      :     1.053568  p :     3.105668
      px      :     1.055984
      py      :     0.996116
      dz2     :     0.026671  d :     0.094259
      dxz     :     0.030929
      dyz     :     0.004855
      dx2y2   :     0.016431
      dxy     :     0.015373

  3 H s       :     0.884725  s :     0.884725
      pz      :     0.011571  p :     0.041176
      px      :     0.021553
      py      :     0.008052

  4 H s       :     0.887366  s :     0.887366
      pz      :     0.027614  p :     0.041284
      px      :     0.005537
      py      :     0.008133

  5 C s       :     2.883704  s :     2.883704
      pz      :     1.051324  p :     3.083732
      px      :     1.058577
      py      :     0.973831
      dz2     :     0.027300  d :     0.094211
      dxz     :     0.034878
      dyz     :     0.012097
      dx2y2   :     0.011919
      dxy     :     0.008017

  6 C s       :     2.884654  s :     2.884654
      pz      :     1.070097  p :     3.118777
      px      :     1.033064
      py      :     1.015616
      dz2     :     0.019348  d :     0.092055
      dxz     :     0.018386
      dyz     :     0.012577
      dx2y2   :     0.018700
      dxy     :     0.023044

  7 H s       :     0.884157  s :     0.884157
      pz      :     0.027833  p :     0.041208
      px      :     0.005576
      py      :     0.007799

  8 C s       :     2.863028  s :     2.863028
      pz      :     1.063212  p :     3.042189
      px      :     1.031445
      py      :     0.947533
      dz2     :     0.030746  d :     0.111445
      dxz     :     0.039211
      dyz     :     0.014134
      dx2y2   :     0.014935
      dxy     :     0.012418

  9 H s       :     0.884812  s :     0.884812
      pz      :     0.010703  p :     0.041322
      px      :     0.022798
      py      :     0.007820

 10 C s       :     2.885926  s :     2.885926
      pz      :     1.061707  p :     3.093533
      px      :     1.057711
      py      :     0.974115
      dz2     :     0.026757  d :     0.094643
      dxz     :     0.035140
      dyz     :     0.012829
      dx2y2   :     0.011778
      dxy     :     0.008140

 11 H s       :     0.883384  s :     0.883384
      pz      :     0.011619  p :     0.041584
      px      :     0.022079
      py      :     0.007886

 12 C s       :     2.872097  s :     2.872097
      pz      :     0.950293  p :     3.007766
      px      :     1.012217
      py      :     1.045256
      dz2     :     0.033543  d :     0.141561
      dxz     :     0.046147
      dyz     :     0.021686
      dx2y2   :     0.018727
      dxy     :     0.021459

 13 H s       :     0.882285  s :     0.882285
      pz      :     0.024682  p :     0.040405
      px      :     0.006611
      py      :     0.009112

 14 H s       :     0.888451  s :     0.888451
      pz      :     0.011131  p :     0.039909
      px      :     0.014553
      py      :     0.014225

 15 C s       :     2.849447  s :     2.849447
      pz      :     0.892745  p :     2.607464
      px      :     1.053280
      py      :     0.661439
      dz2     :     0.083664  d :     0.316747
      dxz     :     0.113071
      dyz     :     0.035477
      dx2y2   :     0.039893
      dxy     :     0.044643

 16 H s       :     0.677845  s :     0.677845
      pz      :     0.036211  p :     0.120340
      px      :     0.056715
      py      :     0.027415

 17 N s       :     3.184314  s :     3.184314
      pz      :     1.351180  p :     4.023460
      px      :     1.495914
      py      :     1.176366
      dz2     :     0.021634  d :     0.061233
      dxz     :     0.006963
      dyz     :     0.010014
      dx2y2   :     0.010363
      dxy     :     0.012260

 18 O s       :     3.457510  s :     3.457510
      pz      :     1.319412  p :     4.705172
      px      :     1.590798
      py      :     1.794963
      dz2     :     0.016365  d :     0.048017
      dxz     :     0.019419
      dyz     :     0.005440
      dx2y2   :     0.005212
      dxy     :     0.001581

 19 H s       :     0.785717  s :     0.785717
      pz      :     0.016107  p :     0.081815
      px      :     0.020851
      py      :     0.044857

 20 O s       :     3.548056  s :     3.548056
      pz      :     1.762526  p :     4.704959
      px      :     1.494672
      py      :     1.447760
      dz2     :     0.008129  d :     0.057286
      dxz     :     0.015788
      dyz     :     0.001545
      dx2y2   :     0.018546
      dxy     :     0.013277

 21 H s       :     0.876028  s :     0.876028
      pz      :     0.007855  p :     0.039992
      px      :     0.017554
      py      :     0.014583

 22 H s       :     0.784463  s :     0.784463
      pz      :     0.021165  p :     0.082057
      px      :     0.039672
      py      :     0.021220



                      *****************************
                      * MAYER POPULATION ANALYSIS *
                      *****************************

  NA   - Mulliken gross atomic population
  ZA   - Total nuclear charge
  QA   - Mulliken gross atomic charge
  VA   - Mayer's total valence
  BVA  - Mayer's bonded valence
  FA   - Mayer's free valence

  ATOM       NA         ZA         QA         VA         BVA        FA
  0 C      6.1538     6.0000    -0.1538     3.9264     3.9264    -0.0000
  1 C      6.1505     6.0000    -0.1505     3.9258     3.9258    -0.0000
  2 C      6.1575     6.0000    -0.1575     3.9287     3.9287    -0.0000
  3 H      0.8542     1.0000     0.1458     0.9542     0.9542    -0.0000
  4 H      0.8571     1.0000     0.1429     0.9553     0.9553     0.0000
  5 C      6.1131     6.0000    -0.1131     3.9366     3.9366     0.0000
  6 C      6.2559     6.0000    -0.2559     3.8115     3.8115    -0.0000
  7 H      0.8533     1.0000     0.1467     0.9540     0.9540     0.0000
  8 C      5.9981     6.0000     0.0019     3.8928     3.8928     0.0000
  9 H      0.8546     1.0000     0.1454     0.9545     0.9545    -0.0000
 10 C      6.1447     6.0000    -0.1447     3.9266     3.9266    -0.0000
 11 H      0.8538     1.0000     0.1462     0.9592     0.9592     0.0000
 12 C      6.0220     6.0000    -0.0220     3.7273     3.7273     0.0000
 13 H      0.8462     1.0000     0.1538     0.9484     0.9484    -0.0000
 14 H      0.8640     1.0000     0.1360     0.9511     0.9511     0.0000
 15 C      5.2228     6.0000     0.7772     3.6962     3.6962     0.0000
 16 H      0.6270     1.0000     0.3730     0.8712     0.8712    -0.0000
 17 N      7.6738     7.0000    -0.6738     2.7779     2.7779     0.0000
 18 O      8.6371     8.0000    -0.6371     1.8184     1.8184     0.0000
 19 H      0.7226     1.0000     0.2774     0.9038     0.9038     0.0000
 20 O      8.5847     8.0000    -0.5847     1.9022     1.9022     0.0000
 21 H      0.8340     1.0000     0.1660     0.9428     0.9428     0.0000
 22 H      0.7193     1.0000     0.2807     0.9078     0.9078    -0.0000

  Mayer bond orders larger than 0.100000
B(  0-C ,  1-C ) :   1.4454 B(  0-C ,  9-H ) :   0.9629 B(  0-C , 10-C ) :   1.4533 
B(  1-C ,  5-C ) :   1.4520 B(  1-C ,  7-H ) :   0.9621 B(  2-C ,  4-H ) :   0.9603 
B(  2-C ,  8-C ) :   1.4477 B(  2-C , 10-C ) :   1.4464 B(  3-H , 10-C ) :   0.9623 
B(  5-C ,  8-C ) :   1.4481 B(  5-C , 11-H ) :   0.9571 B(  6-C ,  8-C ) :   0.9850 
B(  6-C , 12-C ) :   0.9360 B(  6-C , 13-H ) :   0.9699 B(  6-C , 14-H ) :   0.9702 
B( 12-C , 15-C ) :   0.9151 B( 12-C , 17-N ) :   0.9947 B( 12-C , 21-H ) :   0.9535 
B( 15-C , 18-O ) :   0.9672 B( 15-C , 20-O ) :   1.8366 B( 16-H , 18-O ) :   0.8395 
B( 17-N , 19-H ) :   0.9088 B( 17-N , 22-H ) :   0.8982 

-------
TIMINGS
-------

Total SCF time: 0 days 0 hours 0 min 29 sec 

Total time                  ....      29.678 sec
Sum of individual times     ....      27.888 sec  ( 94.0%)

SCF preparation             ....       0.017 sec  (  0.1%)
Fock matrix formation       ....      27.793 sec  ( 93.6%)
  Startup                   ....       0.001 sec  (  0.0% of F)
  Coulomb+Exchange Fock     ....      29.570 sec  (106.4% of F)
Diagonalization             ....       0.000 sec  (  0.0%)
Density matrix formation    ....       0.005 sec  (  0.0%)
Total Energy calculation    ....       0.001 sec  (  0.0%)
Population analysis         ....       0.004 sec  (  0.0%)
Orbital Transformation      ....       0.008 sec  (  0.0%)
Orbital Orthonormalization  ....       0.000 sec  (  0.0%)
DIIS solution               ....       0.043 sec  (  0.1%)
SOSCF solution              ....       0.015 sec  (  0.1%)
Finished LeanSCF after  29.7 sec

Maximum memory used throughout the entire LEANSCF-calculation: 17.3 MB

------------------------------------------------------------------------------
                                ORCA  MP2 
------------------------------------------------------------------------------

Freezing NCore=24 chemical core electrons

----------
MP2 ENERGY (disk based algorithm)
----------

Dimension of the basis                      ...  223
Memory devoted to MP2                       ... 4096 MB   
Data format for buffers                     ... DOUBLE
Compression type for matrix containers      ... UNCOMPRESSED

-------------------------
SHARK HALF TRANSFORMATION (Exchange order)
-------------------------

Number of basis functions                   ...    223
Number of operators                         ...      1
   Operator  0:   12-  43 (p-index in (p*|q*))
   Operator  0:   12-  43 (q-index in (p*|q*)
Integral generator used                     ... SHARK
Contraction scheme used                     ... SEGMENTED CONTRACTION
MaxCore in resort                           ...   4096 MB

Half transformed integrals for op=   0      ... 3.SHARK_MNPQ0.tmp
Resorted half transformed integrals         ... 3.KAO_aa.tmp

Half trafo (segmented) done. Total time = 18.2 sec. integrals= 16.1 sec trafo=  1.9 sec

----------------------
SHARK INTEGRAL SORTING (Exchange)
----------------------

Input container                             ... 3.SHARK_MNPQ0.tmp
Output container                            ... 3.KAO_aa.tmp
Range of AO-indices                         ...    0 -  222
Range of bra indices i                      ...   12 -   43
Range of ket indices j                      ...   12 -   43
Symmetric i,j range                         ... YES
Number of (i,j) pairs generated             ...  528
Max Core memory in MB                       ...   4096

Available core memory in MB                 ...   4083.96
MB needed for one item                      ...      0.38
Fixed MB needed                             ...      0.00
Number of items                             ...       528
Number of batches                           ...         1
Items treated per batch                     ...       528
Batch   0                                   ...      0-   527 (   528)
   => Closing output file and leaving
done (  0.2 sec)

SHARK half integral transformation done. Total time = 18.5 sec.


Finished integral transformation - now doing MP2 part

OPERATOR COMBINATION   0   0: ij=( 12.. 43, 12.. 43)
  Internal MO  14
  Internal MO  17
  Internal MO  20
  Internal MO  23
  Internal MO  26
  Internal MO  29
  Internal MO  32
  Internal MO  35
  Internal MO  38
  Internal MO  41
-----------------------------------------------
 MP2 CORRELATION ENERGY   :     -1.706559921 Eh
-----------------------------------------------


-------
TIMINGS
-------
Total time                :   18.821 sec
Integral trafo            :   18.501 sec ( 98.3%)
K(i,j)                    :    0.273 sec (  1.4%)
T(i,j)                    :    0.007 sec (  0.0%)

---------------------------------------
MP2 TOTAL ENERGY:     -553.141512874 Eh
---------------------------------------

Maximum memory used throughout the entire MP2-calculation: 213.9 MB

-------------------------   --------------------
FINAL SINGLE POINT ENERGY      -553.141512874466
-------------------------   --------------------


------------------------------------------------------------------------------
                              ORCA PROPERTY CALCULATIONS
------------------------------------------------------------------------------

GBWName                                 ... 3.gbw
Number of atoms                         ...     23
Number of basis functions               ...    223
Max core memory                         ...   4096 MB

Electric properties:
Dipole moment                           ... YES
Quadrupole moment                       ...  NO
Static polarizability (Dipole/Dipole)   ...  NO
Static polarizability (Dipole/Quad.)    ...  NO
Static polarizability (Quad./Quad.)     ...  NO
Static polarizability (Velocity)        ...  NO
Static hyperpolarizability              ...  NO

Atomic electric properties:
Dipole moment                           ...  NO
Quadrupole moment                       ...  NO
Static polarizability                   ...  NO

Choice of electric origin               ... Center of mass
Position of electric origin             ...    -6.245145     3.033547     0.629664

General magnetic properties:
Magnetizability                         ...  NO

EPR properties:
g-Tensor (aka g-matrix)                 ...  NO
Zero-Field splitting spin-orbit         ...  NO
Zero-field splitting spin-spin          ...  NO
Hyperfine couplings                     ...  NO (   0 nuclei)
Quadrupole couplings                    ...  NO (   0 nuclei)
Contact density                         ...  NO (   0 nuclei)

NMR properties:
Chemical shifts                         ...  NO (   0 nuclei)
Spin-rotation constants                 ...  NO (   0 nuclei)
Spin-spin couplings                     ...  NO (   0 nuclei,    0 pairs)

Choice of magnetic origin               ... GIAO
Position of magnetic origin             ...     0.000000     0.000000     0.000000

Properties with geometric perturbations:
SCF Hessian                             ...  NO
IR spectrum                             ...  NO
VCD spectrum                            ...  NO
X-ray spectroscopy properties:
SCF XES/XAS/RIXS spectra                ...  NO

SCF SOC stabilization energy            ...  NO
Diagonal Born-Oppenheimer correction    ...  NO

-------------
DIPOLE MOMENT
-------------

Method             : SCF
Type of density    : Electron Density
Multiplicity       :   1
Irrep              :   0
Energy             :  -551.4349529537739727 Eh
Basis              : AO
                                X                 Y                 Z
Electronic contribution:      3.480557446       0.690883911       3.085634065
Nuclear contribution   :     -3.600582431      -0.641291753      -2.557108453
                        -----------------------------------------
Total Dipole Moment    :     -0.120024985       0.049592158       0.528525612
                        -----------------------------------------
Magnitude (a.u.)       :      0.544246913
Magnitude (Debye)      :      1.383365714



--------------------
Rotational spectrum 
--------------------
 
Rotational constants in cm-1:             0.080568             0.015865             0.014106 
Rotational constants in MHz :          2415.363942           475.631956           422.901058 

Dipole components along the rotational axes: 
x,y,z [a.u.] :     0.150756     0.516669     0.080809 
x,y,z [Debye]:     0.383192     1.313269     0.205399 

 

Dipole moment calculation done in   0.0 sec 

Maximum memory used throughout the entire PROP-calculation: 12.3 MB

--------------------------------
SUGGESTED CITATIONS FOR THIS RUN
--------------------------------

Below you find a list of papers that are relevant to this ORCA run
We neither can nor want to force you to cite these papers, but we appreciate if you do
You receive ORCA, which is the product of decades of hard work by many enthusiastic individuals, for free
The only thing we kindly ask in return is that you cite our papers,
We deeply appreciate it, if you show your appreciation for ORCA by not just citing the generic ORCA reference.

Please note that relegating all ORCA citations to the supporting information does *not* help us.
SI sections are not indexed - citations you put there will not count into any citation statistics
But we need these citations in order to attract the funding resources that allow us to do what we are doing

Therefore, if you are a happy ORCA user, please consider citing a few of the papers listed below in the main body of your paper

In addition to the list printed below, the program has created the file 3.bibtex that contains the list in bibtex format
You can import this file easily into all common literature databanks and citation aid programs


List of essential papers. We consider these as the minimum necessary citations

  1. Neese, F.
     Software update: the ORCA program system, version 6.0
     WIRES Comput. Molec. Sci. 2025 15(1), e70019
     doi.org/10.1002/wcms.7019

List of papers to cite with high priority. The work reported in these papers was absolutely
necessary for this run to complete.
Our perspective: the developers of density functionals and basis sets usually get cited in chemistry papers
Good! But without the algorithms to do something with them, the functionals or basis sets would not do anything.
Hence, in our opinion, the algorithm design and method developments papers are equally worthy of getting cited

  1. Neese, F.
     The SHARK Integral Generation and Digestion System
     J. Comp. Chem. 2022 44(3), 381
     doi.org/10.1002/jcc.26942

List of suggested additional citations. These are papers that are important in the 'surrounding' of 
of this run, or papers that preceded the highly important papers. If you like your results we are grateful for a citation.

  1. Neese, F.
     The ORCA program system
     WIRES Comput. Molec. Sci. 2012 2(1), 73-78
     doi.org/10.1002/wcms.81
  2. Neese, F.
     Software update: the ORCA program system, version 4.0
     WIRES Comput. Molec. Sci. 2018 8(1), 1-6
     doi.org/10.1002/wcms.1327
  3. Neese, F.; Wennmohs, F.; Becker, U.; Riplinger, C.
     The ORCA quantum chemistry program package
     J. Chem. Phys. 2020 152(22), 224108
     doi.org/10.1063/5.0004608
  4. Neese, F.
     Software update: The ORCA program system—Version 5.0
     WIRES Comput. Molec. Sci. 2022 12(1), e1606
     doi.org/10.1002/wcms.1606

List of optional additional citations

  1. Neese, F.
     Approximate second-order SCF convergence for spin unrestricted wavefunctions
     Chem. Phys. Lett. 2000 325(1-3), 93-98
     doi.org/10.1016/s0009-2614(00)00662-x

Timings for individual modules:

Sum of individual times          ...       49.434 sec (=   0.824 min)
Startup calculation              ...        0.551 sec (=   0.009 min)   1.1 %
SCF iterations                   ...       30.009 sec (=   0.500 min)  60.7 %
Property calculations            ...        0.026 sec (=   0.000 min)   0.1 %
MP2 module                       ...       18.848 sec (=   0.314 min)  38.1 %
                             ****ORCA TERMINATED NORMALLY****
TOTAL RUN TIME: 0 days 0 hours 0 minutes 49 seconds 471 msec
