
                                 *****************
                                 * O   R   C   A *
                                 *****************

                                            #,                                       
                                            ###                                      
                                            ####                                     
                                            #####                                    
                                            ######                                   
                                           ########,                                 
                                     ,,################,,,,,                         
                               ,,#################################,,                 
                          ,,##########################################,,             
                       ,#########################################, ''#####,          
                    ,#############################################,,   '####,        
                  ,##################################################,,,,####,       
                ,###########''''           ''''###############################       
              ,#####''   ,,,,##########,,,,          '''####'''          '####       
            ,##' ,,,,###########################,,,                        '##       
           ' ,,###''''                  '''############,,,                           
         ,,##''                                '''############,,,,        ,,,,,,###''
      ,#''                                            '''#######################'''  
     '                                                          ''''####''''         
             ,#######,   #######,   ,#######,      ##                                
            ,#'     '#,  ##    ##  ,#'     '#,    #''#        ,####,    ,#,          
            ##       ##  ##   ,#'  ##            #'  '#       #'       ,# #          
            ##       ##  #######   ##           ,######,      #####,      #          
            '#,     ,#'  ##    ##  '#,     ,#' ,#      #,     #,   #      #          
             '#######'   ##     ##  '#######'  #'      '#     '####' #    #          



                #########################################################
                #                        -***-                          #
                #          Department of theory and spectroscopy        #
                #                                                       #
                #                      Frank Neese                      #
                #                                                       #
                #     Directorship, Architecture, Infrastructure        #
                #                    SHARK, DRIVERS                     #
                #        Core code/Algorithms in most modules           #
                #                                                       #
                #        Max Planck Institute fuer Kohlenforschung      #
                #                Kaiser Wilhelm Platz 1                 #
                #                 D-45470 Muelheim/Ruhr                 #
                #                      Germany                          #
                #                                                       #
                #                  All rights reserved                  #
                #                        -***-                          #
                #########################################################


                         Program Version 6.1.0  -  RELEASE   -
                                (GIT: $679e74b$)
                          ($2025-06-10 18:02:51 +0200$)


 With contributions from (in alphabetic order):
[Max-Planck-Institut fuer Kohlenforschung]                               
  Daniel Aravena         : Magnetic Suceptibility                        
  Michael Atanasov       : Ab Initio Ligand Field Theory (pilot matlab implementation)
  Alexander A. Auer      : GIAO ZORA, VPT2 properties, NMR spectrum      
  Ute Becker             : All parallelization in ORCA, NUMFREQ, NUMCALC 
  Giovanni Bistoni       : ED, misc. LED, open-shell LED, HFLD           
  Dmytro Bykov           : pre 5.0 version of the SCF Hessian            
  Marcos Casanova-Páez   : Triplet and SCS-CIS(D). UHF-(DLPNO)-IP/EA/STEOM-CCSD. UHF-CVS-IP/STEOM-CCSD   
  Vijay G. Chilkuri      : MRCI spin determinant printing, contributions to CSF-ICE 
  Pauline Colinet        : FMM embedding                                 
  Dipayan Datta          : RHF DLPNO-CCSD density                        
  Achintya Kumar Dutta   : EOM-CC, STEOM-CC                              
  Nicolas Foglia         : Exact transition moments, OPA infrastructure, MCD improvements    
  Dmitry Ganyushin       : Spin-Orbit,Spin-Spin,Magnetic field MRCI      
  Miquel Garcia-Rates    : C-PCM and meta-GGA Hessian, CCSD/C-PCM, Gaussian charge scheme 
  Tiago L. C. Gouveia    : GS-ROHF, GS-ROCIS                             
  Yang Guo               : DLPNO-NEVPT2, F12-NEVPT2, CIM, IAO-localization        
  Andreas Hansen         : Spin unrestricted coupled pair/coupled cluster methods 
  Ingolf Harden          : AUTO-CI MPn and infrastructure                
  Benjamin Helmich-Paris : MC-RPA, TRAH-(SCF,CASSCF), AVAS, COSX integrals, SCF dyn. polar., MC-PDFT, srDFT 
  Lee Huntington         : MR-EOM, pCC                                   
  Robert Izsak           : Overlap fitted RIJCOSX, COSX-SCS-MP3, EOM     
  Riya Kayal             : Wick's Theorem for AUTO-CI, AUTO-CI UHF-CCSDT 
  Emily Kempfer          : AUTO-CI RHF CISDT and CCSDT, approximate NEVPT4
  Christian Kollmar      : KDIIS, OOCD, Brueckner-CCSD(T), CCSD density, CASPT2, CASPT2-K, improved NEVPT2 
  Axel Koslowski         : Symmetry handling                             
  Simone Kossmann        : meta-GGA functionals, TD-DFT gradient, OOMP2, (MP2 Hessian; deprecated post 5.0) 
  Lucas Lang             : DCDCAS, Hyperfine gauge corrections, ICE-SOC+SSC
  Marvin Lechner         : AUTO-CI (C++ implementation), FIC-MRCC        
  Spencer Leger          : CASSCF response                               
  Dagmar Lenk            : GEPOL surface, SMD, ORCA-2-JSON               
  Dimitrios Liakos       : Extrapolation schemes; Compound Job, Property file
  Dimitrios Manganas     : Further ROCIS development; embedding schemes. LFT, Crystal Embedding 
  Dimitrios Pantazis     : SARC Basis sets                               
  Anastasios Papadopoulos: AUTO-CI, single reference methods and gradients 
  Taras Petrenko         : pre 6.0 DFT Hessian and TD-DFT gradient,  ECA, NRVS 
  Petra Pikulova         : Analytic Raman intensities                    
  Peter Pinski           : DLPNO-MP2, DLPNO-MP2 Gradient                 
  Shashank Vittal Rao    : ES-AILFT, MagRelax                            
  Christoph Reimann      : Effective Core Potentials                     
  Marius Retegan         : Local ZFS, SOC                                
  Christoph Riplinger    : Optimizer, TS searches, QM/MM, DLPNO-CCSD(T), (RO)-DLPNO pert. Triples 
  Michael Roemelt        : Original ROCIS implementation, recursive CI coupling coefficients
  Masaaki Saitow         : Open-shell DLPNO-CCSD energy and density      
  Barbara Sandhoefer     : DKH picture change effects                    
  Yorick L. A. Schmerwitz: GMF and freeze-and-release deltaSCF, NEB S-IDPP initial path                    
  Kantharuban Sivalingam : CASSCF convergence/infrastructure, NEVPT2, NEVPT3, NEVPT4(SD), FIC-MRCI and CEPA variants
  Bernardo de Souza      : ESD, SOC TD-DFT                               
  Georgi L. Stoychev     : AutoAux, RI-MP2 NMR, DLPNO-MP2 response, X2C  
  Van Anh Tran           : RI-MP2 g-tensors                              
  Willem Van den Heuvel  : Paramagnetic NMR                              
  Zikuan Wang            : NOTCH, Electric field optimization            
  Frank Wennmohs         : Technical directorship and infrastructure     
  Hang Xu                : AUTO-CI-Response properties                   
                                                                         
[FACCTs GmbH]                                                            
  Markus Bursch, Nicolas Foglia, Miquel Garcia-Rates, Ingolf Harden, Hagen Neugebauer, Anastasios Papadopoulos, 
  Christoph Riplinger, Bernardo de Souza, Georgi L. Stoychev                                                    
                                                                 
  APM, various basis sets, CI-OPT, improved COSX, DLPNO-Multilevel,           
  DOCKER, DRACO, updates on ESD, Fragmentator, GOAT, IRC, LR-CPCM, L-BFGS, MBIS, meta-GGA TD-DFT gradient, ML-optimized integration grids, 
  MM, NACMEs, nearIR, NEB, NEB-TS, NL-DFT gradient (VV10), 2- and 3-layer-ONIOM, interface openCOSMO-RS, QMMM,   
  Crystal-QMMM, RESP, rigid body optimization, SF, symmetry and pop. for TD-DFT, various functionals, SOLVATOR                                   
                                                                         
[Other institutions]                                                     
  V. Asgeirsson          : NEB                                           
  Christoph Bannwarth    : sTDA-DFT, sTD-DFT, PBEh-3c, B97-3c, D3        
  Giovanni Bistoni       : ETS/NOCV, ADLD/ADEX, COVALED                  
  Martin Brehm           : Molecular dynamics                            
  Ronald Cardenas        : ETS/NOCV                                      
  Martina Colucci        : COVALED                                       
  Sebastian Ehlert       : rSCAN, r2SCAN, r2SCAN-3c, D4, dhf basis sets  
  Marvin Friede          : D4 for Fr, Ra, Ac-Lr                          
  Lars Goerigk           : TD-DFT with DH, B97 family of functionals     
  Stefan Grimme          : VdW corrections, initial TS optimization, DFT functionals, gCP, sTDA/sTD-DF 
  Waldemar Hujo          : DFT-NL                                        
  H. Jonsson             : NEB                                           
  Holger Kruse           : gCP                                           
  Marcel Mueller         : wB97X-3c, vDZP basis set                      
  Hagen Neugebauer       : wr2SCAN, Native XTB                           
  Gianluca Regni         : ADLD/ADEX                                     
  Tobias Risthaus        : pre 6.0 range-separated hybrid DFT and stability analysis
  Lukas Wittmann         : regularized MP2, r2SCAN double-hybrids, wr2SCAN        
                                                                         
We gratefully acknowledge several colleagues who have allowed us to      
interface, adapt or use parts of their codes:                            
  Ed Valeev, F. Pavosevic, A. Kumar             : LibInt (2-el integral package), F12 methods 
  Garnet Chan, S. Sharma, J. Yang, R. Olivares  : DMRG                   
  Ulf Ekstrom                                   : XCFun DFT Library      
  Mihaly Kallay                                 : mrcc  (arbitrary order and MRCC methods)
  Frank Weinhold                                : gennbo (NPA and NBO analysis)           
  Simon Mueller                                 : openCOSMO-RS                            
  Christopher J. Cramer and Donald G. Truhlar   : smd solvation model                     
  S Lehtola, MJT Oliveira, MAL Marques          : LibXC Library                           
  Liviu Ungur et al                             : ANISO software                          


 Your calculation uses the libint2 library for the computation of 2-el integrals
 For citations please refer to: http://libint.valeyev.net

 Your ORCA version has been built with support for libXC version: 7.0.0
 For citations please refer to: https://libxc.gitlab.io

 This ORCA versions uses:
   CBLAS   interface :  Fast vector & matrix operations
   LAPACKE interface :  Fast linear algebra routines
   SCALAPACK package :  Parallel linear algebra routines
   Shared memory     :  Shared parallel matrices
   BLAS/LAPACK       :  OpenBLAS 0.3.29  USE64BITINT DYNAMIC_ARCH NO_AFFINITY Haswell SINGLE_THREADED
        Core in use  :  Haswell
   Copyright (c) 2011-2014, The OpenBLAS Project


  ***********************************
  * Starting time: Wed Aug 13 12:00:23 2025
  * Host name:     CHEMLAB02
  * Process ID:    1530611
  * Working dir.:  /home/vivek/mm-project/vivek/B97-D/c/5
  ***********************************



***************************************
The coordinates will be read from file: /home/vivek/mm-project/vivek/xtb-goat/c/C_CONF/5.xyz
***************************************


Your calculation utilizes empirical dispersion correction


Warning: RI is on but no J-basis has been assigned. Assigning Def2/J (nothing to worry about!)
================================================================================

----- Orbital basis set information -----
Your calculation utilizes the basis: 6-31G**
   H-He, Li-Ne : W. J. Hehre, R. Ditchfield and J.A. Pople, J. Chem. Phys. 56, 2257 (1972).
                 Note: He and Ne are unpublished basis sets taken from the Gaussian program.
                 Note: Li and B from J. D. Dill and J. A. Pople, J. Chem. Phys. 62, 2921 (1975).
   Na - Ar     : M. M. Francl, W. J. Pietro, W. J. Hehre, J. S. Binkley, M. S. Gordon, 
                 D. J. DeFrees and J. A. Pople, J. Chem. Phys. 77, 3654 (1982).
   K - Zn      : V. A. Rassolov, J. A. Pople, M. A. Ratner, and T. L. Windus, J. Chem. Phys. 109, 1223 (1998).

----- AuxJ basis set information -----
Your calculation utilizes the auxiliary basis: def2/J
   H-Rn: F. Weigend, Phys. Chem. Chem. Phys. 8, 1057 (2006).
   Fr-Lr: K. Eichkorn, F. Weigend, O. Treutler, R. Ahlrichs; Theor. Chem. Acc. 97, 119 (1997).

================================================================================
                                        WARNINGS
                       Please study these warnings very carefully!
================================================================================


INFO   : The exchange functional is Grimme's B97(-D)
         As described in S. Grimme, J. Comput. Chem. 27, 1787 (2006).
         Note that this functional defaults to a pure GGA. 

INFO   : The correlation functional is Grimme's B97(-D)
         As described in S. Grimme, J. Comput. Chem. 27, 1787 (2006).

================================================================================
                                       INPUT FILE
================================================================================
NAME = 5.inp
|  1> ! B97-D 6-31G** 
|  2> 
|  3> * xyzfile 0 1 /home/vivek/mm-project/vivek/xtb-goat/c/C_CONF/5.xyz
|  4> 
|  5>                          ****END OF INPUT****
================================================================================

                       ****************************
                       * Single Point Calculation *
                       ****************************

---------------------------------
CARTESIAN COORDINATES (ANGSTROEM)
---------------------------------
  H     -1.634079    2.553527    1.462008
  C     -3.199085    1.808380    0.181055
  H     -3.311330    1.184400   -0.705179
  H     -3.424938   -0.178415    1.430244
  O      0.381629    1.019424    0.692360
  C     -1.726510    2.082174    0.474874
  H     -0.244619    3.258385   -0.294313
  S     -4.047307    0.987122    1.567591
  N     -1.206393    3.019342   -0.507190
  H     -1.235498    2.613583   -1.437036
  C     -0.922010    0.781701    0.515808
  H     -3.713061    2.755794    0.029824
  O     -1.366327   -0.327259    0.376426
  H      0.882793    0.188379    0.708001

----------------------------
CARTESIAN COORDINATES (A.U.)
----------------------------
  NO LB      ZA    FRAG     MASS         X           Y           Z
   0 H     1.0000    0     1.008   -3.087962    4.825466    2.762795
   1 C     6.0000    0    12.011   -6.045394    3.417343    0.342144
   2 H     1.0000    0     1.008   -6.257507    2.238191   -1.332595
   3 H     1.0000    0     1.008   -6.472195   -0.337155    2.702770
   4 O     8.0000    0    15.999    0.721174    1.926431    1.308372
   5 C     6.0000    0    12.011   -3.262631    3.934738    0.897383
   6 H     1.0000    0     1.008   -0.462262    6.157455   -0.556171
   7 S    16.0000    0    32.060   -7.648301    1.865390    2.962318
   8 N     7.0000    0    14.007   -2.279752    5.705730   -0.958449
   9 H     1.0000    0     1.008   -2.334753    4.938957   -2.715604
  10 C     6.0000    0    12.011   -1.742346    1.477200    0.974735
  11 H     1.0000    0     1.008   -7.016668    5.207695    0.056359
  12 O     8.0000    0    15.999   -2.581985   -0.618430    0.711342
  13 H     1.0000    0     1.008    1.668236    0.355984    1.337927

--------------------------------
INTERNAL COORDINATES (ANGSTROEM)
--------------------------------
 H      0   0   0     0.000000000000     0.00000000     0.00000000
 C      1   0   0     2.155302460118     0.00000000     0.00000000
 H      2   1   0     1.089660816409   139.12558949     0.00000000
 H      2   1   3     2.357718852014    92.63664280    87.65784463
 O      1   2   3     2.647434195766   100.35440975   346.41816628
 C      1   2   3     1.097793203659    41.92696973    14.51689083
 H      6   1   2     2.042332655838    91.73565398   141.77438299
 S      4   2   1     1.328413486195    50.23080833    90.36054231
 N      7   6   1     1.013640590891    41.82535844   233.91878178
 H      9   7   6     1.014938919712   108.29402722   238.80955130
 C      5   1   2     1.336845831817    53.05615497   340.26352270
 H      2   1   6     1.088409291779    97.15371838   242.93147154
 O     11   5   1     1.202762072454   122.64947969   204.78407761
 H      5   1   2     0.970590146271   152.20358861   278.84158455

---------------------------
INTERNAL COORDINATES (A.U.)
---------------------------
 H      0   0   0     0.000000000000     0.00000000     0.00000000
 C      1   0   0     4.072931385391     0.00000000     0.00000000
 H      2   1   0     2.059160521878   139.12558949     0.00000000
 H      2   1   3     4.455442931090    92.63664280    87.65784463
 O      1   2   3     5.002925587576   100.35440975   346.41816628
 C      1   2   3     2.074528506596    41.92696973    14.51689083
 H      6   1   2     3.859449393897    91.73565398   141.77438299
 S      4   2   1     2.510337681517    50.23080833    90.36054231
 N      7   6   1     1.915503115011    41.82535844   233.91878178
 H      9   7   6     1.917956600913   108.29402722   238.80955130
 C      5   1   2     2.526272505409    53.05615497   340.26352270
 H      2   1   6     2.056795483077    97.15371838   242.93147154
 O     11   5   1     2.272890921206   122.64947969   204.78407761
 H      5   1   2     1.834149564734   152.20358861   278.84158455

---------------------
BASIS SET INFORMATION
---------------------
There are 5 groups of distinct atoms

 Group   1 Type H   : 4s1p contracted to 2s1p pattern {31/1}
 Group   2 Type C   : 10s4p1d contracted to 3s2p1d pattern {631/31/1}
 Group   3 Type O   : 10s4p1d contracted to 3s2p1d pattern {631/31/1}
 Group   4 Type S   : 16s10p1d contracted to 4s3p1d pattern {6631/631/1}
 Group   5 Type N   : 10s4p1d contracted to 3s2p1d pattern {631/31/1}

Atom   0H    basis set group =>   1
Atom   1C    basis set group =>   2
Atom   2H    basis set group =>   1
Atom   3H    basis set group =>   1
Atom   4O    basis set group =>   3
Atom   5C    basis set group =>   2
Atom   6H    basis set group =>   1
Atom   7S    basis set group =>   4
Atom   8N    basis set group =>   5
Atom   9H    basis set group =>   1
Atom  10C    basis set group =>   2
Atom  11H    basis set group =>   1
Atom  12O    basis set group =>   3
Atom  13H    basis set group =>   1
---------------------------------
AUXILIARY/J BASIS SET INFORMATION
---------------------------------
There are 5 groups of distinct atoms

 Group   1 Type H   : 5s2p1d contracted to 3s1p1d pattern {311/2/1}
 Group   2 Type C   : 12s5p4d2f1g contracted to 6s4p3d1f1g pattern {711111/2111/211/2/1}
 Group   3 Type O   : 12s5p4d2f1g contracted to 6s4p3d1f1g pattern {711111/2111/211/2/1}
 Group   4 Type S   : 14s5p5d2f1g contracted to 8s4p3d1f1g pattern {71111111/2111/311/2/1}
 Group   5 Type N   : 12s5p4d2f1g contracted to 6s4p3d1f1g pattern {711111/2111/211/2/1}

Atom   0H    basis set group =>   1
Atom   1C    basis set group =>   2
Atom   2H    basis set group =>   1
Atom   3H    basis set group =>   1
Atom   4O    basis set group =>   3
Atom   5C    basis set group =>   2
Atom   6H    basis set group =>   1
Atom   7S    basis set group =>   4
Atom   8N    basis set group =>   5
Atom   9H    basis set group =>   1
Atom  10C    basis set group =>   2
Atom  11H    basis set group =>   1
Atom  12O    basis set group =>   3
Atom  13H    basis set group =>   1
------------------------------------------------------------------------------
                             ORCA STARTUP CALCULATIONS
                           -- RI-GTO INTEGRALS CHOSEN --
------------------------------------------------------------------------------
------------------------------------------------------------------------------
                   ___                                                        
                  /   \      - P O W E R E D   B Y -                         
                 /     \                                                     
                 |  |  |   _    _      __       _____    __    __             
                 |  |  |  | |  | |    /  \     |  _  \  |  |  /  |          
                  \  \/   | |  | |   /    \    | | | |  |  | /  /          
                 / \  \   | |__| |  /  /\  \   | |_| |  |  |/  /          
                |  |  |   |  __  | /  /__\  \  |    /   |      \           
                |  |  |   | |  | | |   __   |  |    \   |  |\   \          
                \     /   | |  | | |  |  |  |  | |\  \  |  | \   \       
                 \___/    |_|  |_| |__|  |__|  |_| \__\ |__|  \__/        
                                                                              
                      - O R C A' S   B I G   F R I E N D -                    
                                      &                                       
                       - I N T E G R A L  F E E D E R -                       
                                                                              
 v1 FN, 2020, v2 2021, v3 2022-2024                                           
------------------------------------------------------------------------------


----------------------
SHARK INTEGRAL PACKAGE
----------------------

Number of atoms                             ...     14
Number of basis functions                   ...    137
Number of shells                            ...     65
Maximum angular momentum                    ...      2
Integral batch strategy                     ... SHARK/LIBINT Hybrid
RI-J (if used) integral strategy            ... SPLIT-RIJ (Revised 2003 algorithm where possible)
Printlevel                                  ...      1
Contraction scheme used                     ... SEGMENTED contraction
Prescreening option                         ... SCHWARTZ
   Thresh                                   ... 1.000e-10
   Tcut                                     ... 1.000e-11
   Tpresel                                  ... 1.000e-11 
Coulomb Range Separation                    ... NOT USED
Exchange Range Separation                   ... NOT USED
Multipole approximations                    ... NOT USED
Finite Nucleus Model                        ... NOT USED
CABS basis                                  ... NOT available
Auxiliary Coulomb fitting basis             ... AVAILABLE
   # of basis functions in Aux-J            ...    422
   # of shells in Aux-J                     ...    142
   Maximum angular momentum in Aux-J        ...      4
Auxiliary J/K fitting basis                 ... NOT available
Auxiliary Correlation fitting basis         ... NOT available
Auxiliary 'external' fitting basis          ... NOT available

Checking pre-screening integrals            ... done (  0.0 sec) Dimension = 65
   => SHARK Basis and OBASIS are compatible. Storing Pre-screening
Shell pair information
Shell pair cut-off parameter TPreSel        ...   1.0e-11
Total number of shell pairs                 ...      2145
Shell pairs after pre-screening             ...      2007
Total number of primitive shell pairs       ...     11826
Primitive shell pairs kept                  ...      7414
          la=0 lb=0:    618 shell pairs
          la=1 lb=0:    737 shell pairs
          la=1 lb=1:    238 shell pairs
          la=2 lb=0:    239 shell pairs
          la=2 lb=1:    147 shell pairs
          la=2 lb=2:     28 shell pairs

Checking whether 4 symmetric matrices of dimension 137 fit in memory
:Max Core in MB      =   4096.00
 MB in use           =      6.20
 MB left             =   4089.80
 MB needed           =      0.29
 Data fit in memory  = YES
Calculating RI/J V-Matrix + Cholesky decomp.... done (  0.0 sec)
Calculating Nuclear repulsion               ... done (  0.0 sec) ENN=    381.783373434086 Eh

Diagonalization of the overlap matrix:
Smallest eigenvalue                        ... 3.356e-03
Time for diagonalization                   ...    0.001 sec
Threshold for overlap eigenvalues          ... 1.000e-07
Number of eigenvalues below threshold      ... 0
Time for construction of square roots      ...    0.000 sec
Total time needed                          ...    0.001 sec

-------------------
DFT GRID GENERATION
-------------------

General Integration Accuracy     IntAcc      ... 4.388
Radial Grid Type                 RadialGrid  ... OptM3 with GC (2021)
Angular Grid (max. ang.)         AngularGrid ... 4 (Lebedev-302)
Angular grid pruning method      GridPruning ... 4 (adaptive)
Weight generation scheme         WeightScheme... mBecke (2022)
Basis function cutoff            BFCut       ... 1.0000e-10
Integration weight cutoff        WCut        ... 1.0000e-14
Partially contracted basis set               ... off
Rotationally invariant grid construction     ... off
Angular grids for H and He will be reduced by one unit

Total number of grid points                  ...    66137
Total number of batches                      ...     1040
Average number of points per batch           ...       63
Average number of grid points per atom       ...     4724
Grids setup in   0.2 sec
Initializing property integral containers    ... done (  0.0 sec)

SHARK setup successfully completed in   0.3 seconds

Maximum memory used throughout the entire STARTUP-calculation: 27.8 MB
-------------------------------------------------------------------------------
                                 ORCA GUESS
                   Start orbitals & Density for SCF / CASSCF
-------------------------------------------------------------------------------

------------
SCF SETTINGS
------------
Hamiltonian:
 Density Functional     Method          .... DFT(GTOs)
 Exchange Functional    Exchange        .... B97(D)
 Correlation Functional Correlation     .... B97(D)
 Gradients option       PostSCFGGA      .... off
 RI-approximation to the Coulomb term is turned on
   Number of AuxJ basis functions       .... 422


General Settings:
 Integral files         IntName         .... 5
 Hartree-Fock type      HFTyp           .... RHF
 Total Charge           Charge          ....    0
 Multiplicity           Mult            ....    1
 Number of Electrons    NEL             ....   64
 Basis Dimension        Dim             ....  137
 Nuclear Repulsion      ENuc            ....    381.7833734341 Eh

Convergence Acceleration:
 AO-DIIS                CNVDIIS         .... on
   Start iteration      DIISMaxIt       ....    12
   Startup error        DIISStart       ....  0.200000
   # of expansion vecs  DIISMaxEq       ....     5
   Bias factor          DIISBfac        ....   1.050
   Max. coefficient     DIISMaxC        ....  10.000
 MO-DIIS                CNVKDIIS        .... off
 Trust-Rad. Augm. Hess. CNVTRAH         .... auto
   Auto Start mean grad. ratio tolernc. ....  1.125000
   Auto Start start iteration           ....    50
   Auto Start num. interpolation iter.  ....    10
   Max. Number of Micro iterations      ....    24
   Max. Number of Macro iterations      .... Maxiter - #DIIS iter
   Number of Davidson start vectors     ....     2
   Converg. threshold    (grad. norm)   ....   5.000e-05
   Grad. Scal. Fac. for Micro threshold ....   0.100
   Minimum threshold for Micro iter.    ....   1.000e-02
   NR start threshold (gradient norm)   ....   1.000e-04
   Initial trust radius                 ....   0.400
   Minimum AH scaling param. (alpha)    ....   1.000
   Maximum AH scaling param. (alpha)    .... 1000.000
   Quad. conv. algorithm                .... NR
   White noise on init. David. guess    .... on
   Maximum white noise                  ....   0.010
   Pseudo random numbers                .... off
   Inactive MOs                         .... canonical
   Orbital update algorithm             .... Taylor
   Preconditioner                       .... Diag
   Full preconditioner red. dimension   ....   250
 SOSCF                 CNVSOSCF           .... on
   Start iteration     SOSCFMaxIt         ....   150
   Startup grad/error  SOSCFStart         ....  0.003300
   Hessian update      SOSCFHessUp        .... L-BFGS
   Autom. constraints  SOSCFAutoConstrain .... off
 Level Shifting         CNVShift        .... on
   Level shift para.    LevelShift      ....    0.2500
   Turn off err/grad.   ShiftErr        ....    0.0010
 Zerner damping         CNVZerner       .... off
 Static damping         CNVDamp         .... on
   Fraction old density DampFac         ....    0.7000
   Max. Damping (<1)    DampMax         ....    0.9800
   Min. Damping (>=0)   DampMin         ....    0.0000
   Turn off err/grad.   DampErr         ....    0.1000

SCF Procedure:
 Maximum # iterations   MaxIter         ....   125
 SCF integral mode      SCFMode         .... Direct
   Integral package                     .... SHARK and LIBINT hybrid scheme
 Reset frequency        DirectResetFreq ....    20
 Integral Threshold     Thresh          ....  1.000e-10 Eh
 Primitive CutOff       TCut            ....  1.000e-11 Eh

Convergence Tolerance:
 Convergence Check Mode ConvCheckMode   .... Total+1el-Energy
 Convergence forced     ConvForced      .... 0
 Energy Change          TolE            ....  1.000e-06 Eh
 1-El. energy change                    ....  1.000e-03 Eh
 Orbital Gradient       TolG            ....  5.000e-05
 Orbital Rotation angle TolX            ....  5.000e-05
 DIIS Error             TolErr          ....  1.000e-06

------------------------------
INITIAL GUESS: MODEL POTENTIAL
------------------------------
Loading Hartree-Fock densities                     ... done
Calculating cut-offs                               ... done
Initializing the effective Hamiltonian             ... done
Setting up the integral package (SHARK)            ... done
Starting the Coulomb interaction                   ... done (   0.0 sec)
Making the grid                                    ... done (   0.1 sec)
Mapping shells                                     ... done
Starting the XC term evaluation                    ... done (   0.1 sec)
  promolecular density results
     # of electrons  =     63.996482709
     EX              =    -64.729400023
     EC              =     -2.963828292
     EX+EC           =    -67.693228315
Transforming the Hamiltonian                       ... done (   0.0 sec)
Diagonalizing the Hamiltonian                      ... done (   0.0 sec)
Back transforming the eigenvectors                 ... done (   0.0 sec)
Now organizing SCF variables                       ... done
                      ------------------
                      INITIAL GUESS DONE (   0.2 sec)
                      ------------------
             **** ENERGY FILE WAS UPDATED (5.en.tmp) ****
Finished Guess after   0.2 sec
Maximum memory used throughout the entire GUESS-calculation: 10.3 MB

-------------------------------------------------------------------------------------------
                                      ORCA LEAN-SCF
                              memory conserving SCF solver
-------------------------------------------------------------------------------------------

----------------------------------------D-I-I-S--------------------------------------------
Iteration    Energy (Eh)           Delta-E    RMSDP     MaxDP     DIISErr   Damp  Time(sec)
-------------------------------------------------------------------------------------------
               ***  Starting incremental Fock matrix formation  ***
    1    -721.4621510988600903     0.00e+00  4.19e-03  1.09e-01  2.58e-01  0.700   0.3
    2    -721.5851381176154291    -1.23e-01  2.58e-03  5.88e-02  9.18e-02  0.700   0.3
                               ***Turning on AO-DIIS***
    3    -721.6208089290834096    -3.57e-02  9.82e-04  1.81e-02  2.72e-02  0.700   0.3
    4    -721.6449753095140522    -2.42e-02  1.36e-03  2.92e-02  1.86e-02  0.000   0.3
    5    -721.7020094157334142    -5.70e-02  4.82e-04  1.07e-02  9.92e-03  0.000   0.3
                              *** Initializing SOSCF ***
---------------------------------------S-O-S-C-F--------------------------------------
Iteration    Energy (Eh)           Delta-E    RMSDP     MaxDP     MaxGrad    Time(sec)
--------------------------------------------------------------------------------------
    6    -721.7026028041408381    -5.93e-04  1.54e-04  2.11e-03  3.06e-03     0.3
               *** Restarting incremental Fock matrix formation ***
    7    -721.7026526834139304    -4.99e-05  1.22e-04  2.89e-03  4.43e-04     0.3
    8    -721.7026451644545659     7.52e-06  6.29e-05  2.17e-03  1.22e-03     0.3
    9    -721.7026579611102761    -1.28e-05  5.42e-05  8.35e-04  2.19e-04     0.2
   10    -721.7026575796954830     3.81e-07  2.57e-05  4.20e-04  1.73e-04     0.2
                 **** Energy Check signals convergence ****

               *****************************************************
               *                     SUCCESS                       *
               *           SCF CONVERGED AFTER  10 CYCLES          *
               *****************************************************

             **** ENERGY FILE WAS UPDATED (5.en.tmp) ****

----------------
TOTAL SCF ENERGY
----------------

Total Energy       :       -721.70265929630762 Eh          -19638.52776 eV

Components:
Nuclear Repulsion  :        381.78337343408600 Eh           10388.85375 eV
Electronic Energy  :      -1103.48603273039362 Eh          -30027.38151 eV
One Electron Energy:      -1749.71344461100193 Eh          -47612.12338 eV
Two Electron Energy:        646.22741188060820 Eh           17584.74187 eV

Virial components:
Potential Energy   :      -1441.20729117581277 Eh          -39217.24416 eV
Kinetic Energy     :        719.50463187950527 Eh           19578.71640 eV
Virial Ratio       :          2.00305491767448

DFT components:
N(Alpha)           :       32.000022512621 electrons
N(Beta)            :       32.000022512621 electrons
N(Total)           :       64.000045025243 electrons
E(X)               :      -65.654382977943 Eh       
E(C)               :       -2.955991540975 Eh       
E(XC)              :      -68.610374518918 Eh       

---------------
SCF CONVERGENCE
---------------

  Last Energy change         ...   -3.8141e-07  Tolerance :   1.0000e-06
  Last MAX-Density change    ...    4.2021e-04  Tolerance :   1.0000e-05
  Last RMS-Density change    ...    2.5722e-05  Tolerance :   1.0000e-06
  Last DIIS Error            ...    3.0575e-03  Tolerance :   1.0000e-06
  Last Orbital Gradient      ...    1.7264e-04  Tolerance :   5.0000e-05
  Last Orbital Rotation      ...    1.8279e-04  Tolerance :   5.0000e-05


----------------
ORBITAL ENERGIES
----------------

  NO   OCC          E(Eh)            E(eV) 
   0   2.0000     -88.019082     -2395.1210 
   1   2.0000     -18.826016      -512.2819 
   2   2.0000     -18.767149      -510.6801 
   3   2.0000     -14.002966      -381.0401 
   4   2.0000     -10.040748      -273.2226 
   5   2.0000      -9.959440      -271.0101 
   6   2.0000      -9.939650      -270.4716 
   7   2.0000      -7.705990      -209.6907 
   8   2.0000      -5.740262      -156.2005 
   9   2.0000      -5.735796      -156.0789 
  10   2.0000      -5.728735      -155.8868 
  11   2.0000      -1.033661       -28.1274 
  12   2.0000      -0.944839       -25.7104 
  13   2.0000      -0.831270       -22.6200 
  14   2.0000      -0.719561       -19.5802 
  15   2.0000      -0.646065       -17.5803 
  16   2.0000      -0.594703       -16.1827 
  17   2.0000      -0.536254       -14.5922 
  18   2.0000      -0.474636       -12.9155 
  19   2.0000      -0.447856       -12.1868 
  20   2.0000      -0.432850       -11.7784 
  21   2.0000      -0.417574       -11.3628 
  22   2.0000      -0.394129       -10.7248 
  23   2.0000      -0.374267       -10.1843 
  24   2.0000      -0.354744        -9.6531 
  25   2.0000      -0.333386        -9.0719 
  26   2.0000      -0.327891        -8.9224 
  27   2.0000      -0.292193        -7.9510 
  28   2.0000      -0.279677        -7.6104 
  29   2.0000      -0.252124        -6.8606 
  30   2.0000      -0.202482        -5.5098 
  31   2.0000      -0.190295        -5.1782 
  32   0.0000      -0.033424        -0.9095 
  33   0.0000       0.014996         0.4081 
  34   0.0000       0.040646         1.1060 
  35   0.0000       0.062460         1.6996 
  36   0.0000       0.083737         2.2786 
  37   0.0000       0.104541         2.8447 
  38   0.0000       0.110833         3.0159 
  39   0.0000       0.130177         3.5423 
  40   0.0000       0.149022         4.0551 
  41   0.0000       0.175671         4.7803 
  42   0.0000       0.204740         5.5713 
*Only the first 10 virtual orbitals were printed.

                    ********************************
                    * MULLIKEN POPULATION ANALYSIS *
                    ********************************

-----------------------
MULLIKEN ATOMIC CHARGES
-----------------------
   0 H :    0.151569
   1 C :   -0.338959
   2 H :    0.149387
   3 H :    0.098809
   4 O :   -0.459272
   5 C :   -0.035012
   6 H :    0.256021
   7 S :   -0.080043
   8 N :   -0.564702
   9 H :    0.240727
  10 C :    0.511063
  11 H :    0.163765
  12 O :   -0.415870
  13 H :    0.322517
Sum of atomic charges:   -0.0000000

--------------------------------
MULLIKEN REDUCED ORBITAL CHARGES
--------------------------------
  0 H s       :     0.837437  s :     0.837437
      pz      :     0.005921  p :     0.010994
      px      :     0.002218
      py      :     0.002854

  1 C s       :     3.301275  s :     3.301275
      pz      :     0.978652  p :     3.001573
      px      :     0.947208
      py      :     1.075713
      dz2     :     0.008722  d :     0.036111
      dxz     :     0.005438
      dyz     :     0.007028
      dx2y2   :     0.007109
      dxy     :     0.007815

  2 H s       :     0.838822  s :     0.838822
      pz      :     0.005141  p :     0.011791
      px      :     0.002472
      py      :     0.004177

  3 H s       :     0.884283  s :     0.884283
      pz      :     0.003549  p :     0.016908
      px      :     0.005957
      py      :     0.007402

  4 O s       :     3.824423  s :     3.824423
      pz      :     1.765654  p :     4.612098
      px      :     1.299722
      py      :     1.546721
      dz2     :     0.003256  d :     0.022752
      dxz     :     0.003786
      dyz     :     0.001809
      dx2y2   :     0.006424
      dxy     :     0.007476

  5 C s       :     3.203530  s :     3.203530
      pz      :     0.991425  p :     2.774027
      px      :     0.898906
      py      :     0.883695
      dz2     :     0.011956  d :     0.057455
      dxz     :     0.008217
      dyz     :     0.012240
      dx2y2   :     0.012373
      dxy     :     0.012670

  6 H s       :     0.719964  s :     0.719964
      pz      :     0.004784  p :     0.024015
      px      :     0.011577
      py      :     0.007654

  7 S s       :     5.849395  s :     5.849395
      pz      :     3.427346  p :    10.172649
      px      :     3.629552
      py      :     3.115751
      dz2     :     0.013359  d :     0.057999
      dxz     :     0.010703
      dyz     :     0.008699
      dx2y2   :     0.008235
      dxy     :     0.017004

  8 N s       :     3.597976  s :     3.597976
      pz      :     1.098142  p :     3.938351
      px      :     1.328398
      py      :     1.511811
      dz2     :     0.007193  d :     0.028375
      dxz     :     0.001582
      dyz     :     0.008695
      dx2y2   :     0.008494
      dxy     :     0.002412

  9 H s       :     0.735301  s :     0.735301
      pz      :     0.010793  p :     0.023971
      px      :     0.005863
      py      :     0.007315

 10 C s       :     2.981452  s :     2.981452
      pz      :     0.783989  p :     2.382917
      px      :     0.740974
      py      :     0.857953
      dz2     :     0.007723  d :     0.124569
      dxz     :     0.016547
      dyz     :     0.017283
      dx2y2   :     0.044977
      dxy     :     0.038038

 11 H s       :     0.824543  s :     0.824543
      pz      :     0.002631  p :     0.011692
      px      :     0.003174
      py      :     0.005887

 12 O s       :     3.862236  s :     3.862236
      pz      :     1.418551  p :     4.525706
      px      :     1.701150
      py      :     1.406004
      dz2     :     0.002632  d :     0.027928
      dxz     :     0.001679
      dyz     :     0.008927
      dx2y2   :     0.007348
      dxy     :     0.007343

 13 H s       :     0.639459  s :     0.639459
      pz      :     0.009294  p :     0.038025
      px      :     0.010749
      py      :     0.017982



                     *******************************
                     * LOEWDIN POPULATION ANALYSIS *
                     *******************************

----------------------
LOEWDIN ATOMIC CHARGES
----------------------
   0 H :    0.094466
   1 C :   -0.212521
   2 H :    0.082769
   3 H :    0.053695
   4 O :   -0.138705
   5 C :   -0.058176
   6 H :    0.130668
   7 S :   -0.004821
   8 N :   -0.242564
   9 H :    0.125305
  10 C :    0.105876
  11 H :    0.096503
  12 O :   -0.217430
  13 H :    0.184934

-------------------------------
LOEWDIN REDUCED ORBITAL CHARGES
-------------------------------
  0 H s       :     0.865910  s :     0.865910
      pz      :     0.022804  p :     0.039624
      px      :     0.006611
      py      :     0.010209

  1 C s       :     2.950627  s :     2.950627
      pz      :     1.055251  p :     3.182186
      px      :     1.030592
      py      :     1.096343
      dz2     :     0.018722  d :     0.079708
      dxz     :     0.012863
      dyz     :     0.015175
      dx2y2   :     0.016953
      dxy     :     0.015995

  2 H s       :     0.875108  s :     0.875108
      pz      :     0.021016  p :     0.042122
      px      :     0.007138
      py      :     0.013968

  3 H s       :     0.894808  s :     0.894808
      pz      :     0.008659  p :     0.051497
      px      :     0.016622
      py      :     0.026215

  4 O s       :     3.467285  s :     3.467285
      pz      :     1.730561  p :     4.620681
      px      :     1.340966
      py      :     1.549154
      dz2     :     0.007436  d :     0.050738
      dxz     :     0.007619
      dyz     :     0.001412
      dx2y2   :     0.016516
      dxy     :     0.017755

  5 C s       :     2.889146  s :     2.889146
      pz      :     1.029375  p :     3.038578
      px      :     1.015578
      py      :     0.993626
      dz2     :     0.026567  d :     0.130452
      dxz     :     0.016660
      dyz     :     0.027162
      dx2y2   :     0.030288
      dxy     :     0.029775

  6 H s       :     0.789448  s :     0.789448
      pz      :     0.012631  p :     0.079884
      px      :     0.044290
      py      :     0.022964

  7 S s       :     5.642150  s :     5.642150
      pz      :     3.485804  p :    10.298756
      px      :     3.655406
      py      :     3.157546
      dz2     :     0.014521  d :     0.063916
      dxz     :     0.012244
      dyz     :     0.010249
      dx2y2   :     0.008784
      dxy     :     0.018118

  8 N s       :     3.197111  s :     3.197111
      pz      :     1.145645  p :     3.987463
      px      :     1.328223
      py      :     1.513595
      dz2     :     0.016336  d :     0.057989
      dxz     :     0.005217
      dyz     :     0.017662
      dx2y2   :     0.013672
      dxy     :     0.005103

  9 H s       :     0.795504  s :     0.795504
      pz      :     0.039208  p :     0.079191
      px      :     0.015651
      py      :     0.024332

 10 C s       :     2.857793  s :     2.857793
      pz      :     0.788079  p :     2.739669
      px      :     0.905872
      py      :     1.045718
      dz2     :     0.019330  d :     0.296662
      dxz     :     0.036598
      dyz     :     0.034762
      dx2y2   :     0.110506
      dxy     :     0.095466

 11 H s       :     0.861916  s :     0.861916
      pz      :     0.007485  p :     0.041581
      px      :     0.011071
      py      :     0.023026

 12 O s       :     3.553613  s :     3.553613
      pz      :     1.404188  p :     4.605538
      px      :     1.698542
      py      :     1.502809
      dz2     :     0.007044  d :     0.058279
      dxz     :     0.002632
      dyz     :     0.012809
      dx2y2   :     0.018654
      dxy     :     0.017141

 13 H s       :     0.699272  s :     0.699272
      pz      :     0.026217  p :     0.115794
      px      :     0.031310
      py      :     0.058267



                      *****************************
                      * MAYER POPULATION ANALYSIS *
                      *****************************

  NA   - Mulliken gross atomic population
  ZA   - Total nuclear charge
  QA   - Mulliken gross atomic charge
  VA   - Mayer's total valence
  BVA  - Mayer's bonded valence
  FA   - Mayer's free valence

  ATOM       NA         ZA         QA         VA         BVA        FA
  0 H      0.8484     1.0000     0.1516     0.9453     0.9453    -0.0000
  1 C      6.3390     6.0000    -0.3390     3.8589     3.8589     0.0000
  2 H      0.8506     1.0000     0.1494     0.9454     0.9454     0.0000
  3 H      0.9012     1.0000     0.0988     0.9825     0.9825     0.0000
  4 O      8.4593     8.0000    -0.4593     2.0501     2.0501    -0.0000
  5 C      6.0350     6.0000    -0.0350     3.8309     3.8309    -0.0000
  6 H      0.7440     1.0000     0.2560     0.9212     0.9212     0.0000
  7 S     16.0800    16.0000    -0.0800     1.9753     1.9753    -0.0000
  8 N      7.5647     7.0000    -0.5647     2.8881     2.8881    -0.0000
  9 H      0.7593     1.0000     0.2407     0.9204     0.9204    -0.0000
 10 C      5.4889     6.0000     0.5111     3.9354     3.9354    -0.0000
 11 H      0.8362     1.0000     0.1638     0.9456     0.9456     0.0000
 12 O      8.4159     8.0000    -0.4159     2.1041     2.1041    -0.0000
 13 H      0.6775     1.0000     0.3225     0.9147     0.9147     0.0000

  Mayer bond orders larger than 0.100000
B(  0-H ,  5-C ) :   0.9183 B(  1-C ,  2-H ) :   0.9361 B(  1-C ,  5-C ) :   0.9693 
B(  1-C ,  7-S ) :   1.0027 B(  1-C , 11-H ) :   0.9387 B(  3-H ,  7-S ) :   0.9344 
B(  4-O , 10-C ) :   1.0973 B(  4-O , 13-H ) :   0.8498 B(  5-C ,  8-N ) :   1.0141 
B(  5-C , 10-C ) :   0.9034 B(  6-H ,  8-N ) :   0.8980 B(  8-N ,  9-H ) :   0.9068 
B( 10-C , 12-O ) :   1.8836 

-------
TIMINGS
-------

Total SCF time: 0 days 0 hours 0 min 2 sec 

Total time                  ....       2.936 sec
Sum of individual times     ....       2.690 sec  ( 91.6%)

SCF preparation             ....       0.023 sec  (  0.8%)
Fock matrix formation       ....       2.643 sec  ( 90.0%)
  Startup                   ....       0.000 sec  (  0.0% of F)
  Split-RI-J                ....       0.830 sec  ( 31.4% of F)
  XC integration            ....       2.048 sec  ( 77.5% of F)
    Basis function eval.    ....       0.700 sec  ( 34.2% of XC)
    Density eval.           ....       0.414 sec  ( 20.2% of XC)
    XC-Functional eval.     ....       0.425 sec  ( 20.8% of XC)
    XC-Potential eval.      ....       0.456 sec  ( 22.3% of XC)
Diagonalization             ....       0.000 sec  (  0.0%)
Density matrix formation    ....       0.002 sec  (  0.1%)
Total Energy calculation    ....       0.000 sec  (  0.0%)
Population analysis         ....       0.002 sec  (  0.1%)
Orbital Transformation      ....       0.003 sec  (  0.1%)
Orbital Orthonormalization  ....       0.000 sec  (  0.0%)
DIIS solution               ....       0.012 sec  (  0.4%)
SOSCF solution              ....       0.005 sec  (  0.2%)
Finished LeanSCF after   2.9 sec

Maximum memory used throughout the entire LEANSCF-calculation: 14.8 MB



-------------------------------------------------------------------------------
                          DFT DISPERSION CORRECTION                            
-------------------------------------------------------------------------------
Active option DFTDOPT                   ...         2   
Final C6-coefficient scaling factor     ...     1.250
Final VDW-radii scaling factor          ...     1.100
Damping factor alpha                    ...    20.000
-------------------------   ----------------
Dispersion correction           -0.016865083
-------------------------   ----------------


-------------------------   --------------------
FINAL SINGLE POINT ENERGY      -721.719524379604
-------------------------   --------------------


------------------------------------------------------------------------------
                              ORCA PROPERTY CALCULATIONS
------------------------------------------------------------------------------

GBWName                                 ... 5.gbw
Number of atoms                         ...     14
Number of basis functions               ...    137
Max core memory                         ...   4096 MB

Electric properties:
Dipole moment                           ... YES
Quadrupole moment                       ...  NO
Static polarizability (Dipole/Dipole)   ...  NO
Static polarizability (Dipole/Quad.)    ...  NO
Static polarizability (Quad./Quad.)     ...  NO
Static polarizability (Velocity)        ...  NO
Static hyperpolarizability              ...  NO

Atomic electric properties:
Dipole moment                           ...  NO
Quadrupole moment                       ...  NO
Static polarizability                   ...  NO

Choice of electric origin               ... Center of mass
Position of electric origin             ...    -3.828095     2.395905     1.178082

General magnetic properties:
Magnetizability                         ...  NO

EPR properties:
g-Tensor (aka g-matrix)                 ...  NO
Zero-Field splitting spin-orbit         ...  NO
Zero-field splitting spin-spin          ...  NO
Hyperfine couplings                     ...  NO (   0 nuclei)
Quadrupole couplings                    ...  NO (   0 nuclei)
Contact density                         ...  NO (   0 nuclei)

NMR properties:
Chemical shifts                         ...  NO (   0 nuclei)
Spin-rotation constants                 ...  NO (   0 nuclei)
Spin-spin couplings                     ...  NO (   0 nuclei,    0 pairs)

Choice of magnetic origin               ... GIAO
Position of magnetic origin             ...     0.000000     0.000000     0.000000

Properties with geometric perturbations:
SCF Hessian                             ...  NO
IR spectrum                             ...  NO
VCD spectrum                            ...  NO
X-ray spectroscopy properties:
SCF XES/XAS/RIXS spectra                ...  NO

SCF SOC stabilization energy            ...  NO
Diagonal Born-Oppenheimer correction    ...  NO

-------------
DIPOLE MOMENT
-------------

Method             : SCF
Type of density    : Electron Density
Multiplicity       :   1
Irrep              :   0
Energy             :  -721.7026592963076155 Eh
Basis              : AO
                                X                 Y                 Z
Electronic contribution:     -0.232440578      -3.223496003       2.499683286
Nuclear contribution   :      1.515139253       3.274729065      -3.010539509
                        -----------------------------------------
Total Dipole Moment    :      1.282698675       0.051233061      -0.510856223
                        -----------------------------------------
Magnitude (a.u.)       :      1.381634829
Magnitude (Debye)      :      3.511836644



--------------------
Rotational spectrum 
--------------------
 
Rotational constants in cm-1:             0.110460             0.050215             0.038201 
Rotational constants in MHz :          3311.522053          1505.419138          1145.246871 

Dipole components along the rotational axes: 
x,y,z [a.u.] :     1.374702    -0.012418    -0.137681 
x,y,z [Debye]:     3.494214    -0.031564    -0.349959 

 

Dipole moment calculation done in   0.0 sec 

Maximum memory used throughout the entire PROP-calculation: 8.4 MB

--------------------------------
SUGGESTED CITATIONS FOR THIS RUN
--------------------------------

Below you find a list of papers that are relevant to this ORCA run
We neither can nor want to force you to cite these papers, but we appreciate if you do
You receive ORCA, which is the product of decades of hard work by many enthusiastic individuals, for free
The only thing we kindly ask in return is that you cite our papers,
We deeply appreciate it, if you show your appreciation for ORCA by not just citing the generic ORCA reference.

Please note that relegating all ORCA citations to the supporting information does *not* help us.
SI sections are not indexed - citations you put there will not count into any citation statistics
But we need these citations in order to attract the funding resources that allow us to do what we are doing

Therefore, if you are a happy ORCA user, please consider citing a few of the papers listed below in the main body of your paper

In addition to the list printed below, the program has created the file 5.bibtex that contains the list in bibtex format
You can import this file easily into all common literature databanks and citation aid programs


List of essential papers. We consider these as the minimum necessary citations

  1. Neese, F.
     Software update: the ORCA program system, version 6.0
     WIRES Comput. Molec. Sci. 2025 15(1), e70019
     doi.org/10.1002/wcms.7019

List of papers to cite with high priority. The work reported in these papers was absolutely
necessary for this run to complete.
Our perspective: the developers of density functionals and basis sets usually get cited in chemistry papers
Good! But without the algorithms to do something with them, the functionals or basis sets would not do anything.
Hence, in our opinion, the algorithm design and method developments papers are equally worthy of getting cited

  1. Neese, F.
     An improvement of the resolution of the identity approximation for the formation of the Coulomb matrix
     J. Comp. Chem. 2003 24(14), 1740-1747
     doi.org/10.1002/jcc.10318
  2. Grimme, S.
     Semiempirical GGA-type density functional constructed with a long-range dispersion correction
     J.Comput.Chem. 2006 27(15), 1787-1799
     doi.org/10.1002/jcc.20495
  3. Neese, F.
     The SHARK Integral Generation and Digestion System
     J. Comp. Chem. 2022 44(3), 381
     doi.org/10.1002/jcc.26942

List of suggested additional citations. These are papers that are important in the 'surrounding' of 
of this run, or papers that preceded the highly important papers. If you like your results we are grateful for a citation.

  1. Neese, F.
     The ORCA program system
     WIRES Comput. Molec. Sci. 2012 2(1), 73-78
     doi.org/10.1002/wcms.81
  2. Neese, F.
     Software update: the ORCA program system, version 4.0
     WIRES Comput. Molec. Sci. 2018 8(1), 1-6
     doi.org/10.1002/wcms.1327
  3. Neese, F.; Wennmohs, F.; Becker, U.; Riplinger, C.
     The ORCA quantum chemistry program package
     J. Chem. Phys. 2020 152(22), 224108
     doi.org/10.1063/5.0004608
  4. Neese, F.
     Software update: The ORCA program system—Version 5.0
     WIRES Comput. Molec. Sci. 2022 12(1), e1606
     doi.org/10.1002/wcms.1606

List of optional additional citations

  1. Neese, F.
     Approximate second-order SCF convergence for spin unrestricted wavefunctions
     Chem. Phys. Lett. 2000 325(1-3), 93-98
     doi.org/10.1016/s0009-2614(00)00662-x

Timings for individual modules:

Sum of individual times          ...        3.456 sec (=   0.058 min)
Startup calculation              ...        0.298 sec (=   0.005 min)   8.6 %
SCF iterations                   ...        3.129 sec (=   0.052 min)  90.5 %
Property calculations            ...        0.029 sec (=   0.000 min)   0.8 %
                             ****ORCA TERMINATED NORMALLY****
TOTAL RUN TIME: 0 days 0 hours 0 minutes 3 seconds 493 msec
