
                                 *****************
                                 * O   R   C   A *
                                 *****************

                                            #,                                       
                                            ###                                      
                                            ####                                     
                                            #####                                    
                                            ######                                   
                                           ########,                                 
                                     ,,################,,,,,                         
                               ,,#################################,,                 
                          ,,##########################################,,             
                       ,#########################################, ''#####,          
                    ,#############################################,,   '####,        
                  ,##################################################,,,,####,       
                ,###########''''           ''''###############################       
              ,#####''   ,,,,##########,,,,          '''####'''          '####       
            ,##' ,,,,###########################,,,                        '##       
           ' ,,###''''                  '''############,,,                           
         ,,##''                                '''############,,,,        ,,,,,,###''
      ,#''                                            '''#######################'''  
     '                                                          ''''####''''         
             ,#######,   #######,   ,#######,      ##                                
            ,#'     '#,  ##    ##  ,#'     '#,    #''#        ,####,    ,#,          
            ##       ##  ##   ,#'  ##            #'  '#       #'       ,# #          
            ##       ##  #######   ##           ,######,      #####,      #          
            '#,     ,#'  ##    ##  '#,     ,#' ,#      #,     #,   #      #          
             '#######'   ##     ##  '#######'  #'      '#     '####' #    #          



                #########################################################
                #                        -***-                          #
                #          Department of theory and spectroscopy        #
                #                                                       #
                #                      Frank Neese                      #
                #                                                       #
                #     Directorship, Architecture, Infrastructure        #
                #                    SHARK, DRIVERS                     #
                #        Core code/Algorithms in most modules           #
                #                                                       #
                #        Max Planck Institute fuer Kohlenforschung      #
                #                Kaiser Wilhelm Platz 1                 #
                #                 D-45470 Muelheim/Ruhr                 #
                #                      Germany                          #
                #                                                       #
                #                  All rights reserved                  #
                #                        -***-                          #
                #########################################################


                         Program Version 6.1.0  -  RELEASE   -
                                (GIT: $679e74b$)
                          ($2025-06-10 18:02:51 +0200$)


 With contributions from (in alphabetic order):
[Max-Planck-Institut fuer Kohlenforschung]                               
  Daniel Aravena         : Magnetic Suceptibility                        
  Michael Atanasov       : Ab Initio Ligand Field Theory (pilot matlab implementation)
  Alexander A. Auer      : GIAO ZORA, VPT2 properties, NMR spectrum      
  Ute Becker             : All parallelization in ORCA, NUMFREQ, NUMCALC 
  Giovanni Bistoni       : ED, misc. LED, open-shell LED, HFLD           
  Dmytro Bykov           : pre 5.0 version of the SCF Hessian            
  Marcos Casanova-Páez   : Triplet and SCS-CIS(D). UHF-(DLPNO)-IP/EA/STEOM-CCSD. UHF-CVS-IP/STEOM-CCSD   
  Vijay G. Chilkuri      : MRCI spin determinant printing, contributions to CSF-ICE 
  Pauline Colinet        : FMM embedding                                 
  Dipayan Datta          : RHF DLPNO-CCSD density                        
  Achintya Kumar Dutta   : EOM-CC, STEOM-CC                              
  Nicolas Foglia         : Exact transition moments, OPA infrastructure, MCD improvements    
  Dmitry Ganyushin       : Spin-Orbit,Spin-Spin,Magnetic field MRCI      
  Miquel Garcia-Rates    : C-PCM and meta-GGA Hessian, CCSD/C-PCM, Gaussian charge scheme 
  Tiago L. C. Gouveia    : GS-ROHF, GS-ROCIS                             
  Yang Guo               : DLPNO-NEVPT2, F12-NEVPT2, CIM, IAO-localization        
  Andreas Hansen         : Spin unrestricted coupled pair/coupled cluster methods 
  Ingolf Harden          : AUTO-CI MPn and infrastructure                
  Benjamin Helmich-Paris : MC-RPA, TRAH-(SCF,CASSCF), AVAS, COSX integrals, SCF dyn. polar., MC-PDFT, srDFT 
  Lee Huntington         : MR-EOM, pCC                                   
  Robert Izsak           : Overlap fitted RIJCOSX, COSX-SCS-MP3, EOM     
  Riya Kayal             : Wick's Theorem for AUTO-CI, AUTO-CI UHF-CCSDT 
  Emily Kempfer          : AUTO-CI RHF CISDT and CCSDT, approximate NEVPT4
  Christian Kollmar      : KDIIS, OOCD, Brueckner-CCSD(T), CCSD density, CASPT2, CASPT2-K, improved NEVPT2 
  Axel Koslowski         : Symmetry handling                             
  Simone Kossmann        : meta-GGA functionals, TD-DFT gradient, OOMP2, (MP2 Hessian; deprecated post 5.0) 
  Lucas Lang             : DCDCAS, Hyperfine gauge corrections, ICE-SOC+SSC
  Marvin Lechner         : AUTO-CI (C++ implementation), FIC-MRCC        
  Spencer Leger          : CASSCF response                               
  Dagmar Lenk            : GEPOL surface, SMD, ORCA-2-JSON               
  Dimitrios Liakos       : Extrapolation schemes; Compound Job, Property file
  Dimitrios Manganas     : Further ROCIS development; embedding schemes. LFT, Crystal Embedding 
  Dimitrios Pantazis     : SARC Basis sets                               
  Anastasios Papadopoulos: AUTO-CI, single reference methods and gradients 
  Taras Petrenko         : pre 6.0 DFT Hessian and TD-DFT gradient,  ECA, NRVS 
  Petra Pikulova         : Analytic Raman intensities                    
  Peter Pinski           : DLPNO-MP2, DLPNO-MP2 Gradient                 
  Shashank Vittal Rao    : ES-AILFT, MagRelax                            
  Christoph Reimann      : Effective Core Potentials                     
  Marius Retegan         : Local ZFS, SOC                                
  Christoph Riplinger    : Optimizer, TS searches, QM/MM, DLPNO-CCSD(T), (RO)-DLPNO pert. Triples 
  Michael Roemelt        : Original ROCIS implementation, recursive CI coupling coefficients
  Masaaki Saitow         : Open-shell DLPNO-CCSD energy and density      
  Barbara Sandhoefer     : DKH picture change effects                    
  Yorick L. A. Schmerwitz: GMF and freeze-and-release deltaSCF, NEB S-IDPP initial path                    
  Kantharuban Sivalingam : CASSCF convergence/infrastructure, NEVPT2, NEVPT3, NEVPT4(SD), FIC-MRCI and CEPA variants
  Bernardo de Souza      : ESD, SOC TD-DFT                               
  Georgi L. Stoychev     : AutoAux, RI-MP2 NMR, DLPNO-MP2 response, X2C  
  Van Anh Tran           : RI-MP2 g-tensors                              
  Willem Van den Heuvel  : Paramagnetic NMR                              
  Zikuan Wang            : NOTCH, Electric field optimization            
  Frank Wennmohs         : Technical directorship and infrastructure     
  Hang Xu                : AUTO-CI-Response properties                   
                                                                         
[FACCTs GmbH]                                                            
  Markus Bursch, Nicolas Foglia, Miquel Garcia-Rates, Ingolf Harden, Hagen Neugebauer, Anastasios Papadopoulos, 
  Christoph Riplinger, Bernardo de Souza, Georgi L. Stoychev                                                    
                                                                 
  APM, various basis sets, CI-OPT, improved COSX, DLPNO-Multilevel,           
  DOCKER, DRACO, updates on ESD, Fragmentator, GOAT, IRC, LR-CPCM, L-BFGS, MBIS, meta-GGA TD-DFT gradient, ML-optimized integration grids, 
  MM, NACMEs, nearIR, NEB, NEB-TS, NL-DFT gradient (VV10), 2- and 3-layer-ONIOM, interface openCOSMO-RS, QMMM,   
  Crystal-QMMM, RESP, rigid body optimization, SF, symmetry and pop. for TD-DFT, various functionals, SOLVATOR                                   
                                                                         
[Other institutions]                                                     
  V. Asgeirsson          : NEB                                           
  Christoph Bannwarth    : sTDA-DFT, sTD-DFT, PBEh-3c, B97-3c, D3        
  Giovanni Bistoni       : ETS/NOCV, ADLD/ADEX, COVALED                  
  Martin Brehm           : Molecular dynamics                            
  Ronald Cardenas        : ETS/NOCV                                      
  Martina Colucci        : COVALED                                       
  Sebastian Ehlert       : rSCAN, r2SCAN, r2SCAN-3c, D4, dhf basis sets  
  Marvin Friede          : D4 for Fr, Ra, Ac-Lr                          
  Lars Goerigk           : TD-DFT with DH, B97 family of functionals     
  Stefan Grimme          : VdW corrections, initial TS optimization, DFT functionals, gCP, sTDA/sTD-DF 
  Waldemar Hujo          : DFT-NL                                        
  H. Jonsson             : NEB                                           
  Holger Kruse           : gCP                                           
  Marcel Mueller         : wB97X-3c, vDZP basis set                      
  Hagen Neugebauer       : wr2SCAN, Native XTB                           
  Gianluca Regni         : ADLD/ADEX                                     
  Tobias Risthaus        : pre 6.0 range-separated hybrid DFT and stability analysis
  Lukas Wittmann         : regularized MP2, r2SCAN double-hybrids, wr2SCAN        
                                                                         
We gratefully acknowledge several colleagues who have allowed us to      
interface, adapt or use parts of their codes:                            
  Ed Valeev, F. Pavosevic, A. Kumar             : LibInt (2-el integral package), F12 methods 
  Garnet Chan, S. Sharma, J. Yang, R. Olivares  : DMRG                   
  Ulf Ekstrom                                   : XCFun DFT Library      
  Mihaly Kallay                                 : mrcc  (arbitrary order and MRCC methods)
  Frank Weinhold                                : gennbo (NPA and NBO analysis)           
  Simon Mueller                                 : openCOSMO-RS                            
  Christopher J. Cramer and Donald G. Truhlar   : smd solvation model                     
  S Lehtola, MJT Oliveira, MAL Marques          : LibXC Library                           
  Liviu Ungur et al                             : ANISO software                          


 Your calculation uses the libint2 library for the computation of 2-el integrals
 For citations please refer to: http://libint.valeyev.net

 Your ORCA version has been built with support for libXC version: 7.0.0
 For citations please refer to: https://libxc.gitlab.io

 This ORCA versions uses:
   CBLAS   interface :  Fast vector & matrix operations
   LAPACKE interface :  Fast linear algebra routines
   SCALAPACK package :  Parallel linear algebra routines
   Shared memory     :  Shared parallel matrices
   BLAS/LAPACK       :  OpenBLAS 0.3.29  USE64BITINT DYNAMIC_ARCH NO_AFFINITY Haswell SINGLE_THREADED
        Core in use  :  Haswell
   Copyright (c) 2011-2014, The OpenBLAS Project


  ***********************************
  * Starting time: Mon Sep  1 08:54:47 2025
  * Host name:     chemlab03
  * Process ID:    97567
  * Working dir.:  /home/vivek/mm-project/vivek/xtb-goat/MP2-opt/f/5
  ***********************************



***************************************
The coordinates will be read from file: /home/vivek/mm-project/vivek/xtb-goat/xtb-goat/f/F_CONF/5.xyz
***************************************


================================================================================

----- Orbital basis set information -----
Your calculation utilizes the basis: 6-31G**
   H-He, Li-Ne : W. J. Hehre, R. Ditchfield and J.A. Pople, J. Chem. Phys. 56, 2257 (1972).
                 Note: He and Ne are unpublished basis sets taken from the Gaussian program.
                 Note: Li and B from J. D. Dill and J. A. Pople, J. Chem. Phys. 62, 2921 (1975).
   Na - Ar     : M. M. Francl, W. J. Pietro, W. J. Hehre, J. S. Binkley, M. S. Gordon, 
                 D. J. DeFrees and J. A. Pople, J. Chem. Phys. 77, 3654 (1982).
   K - Zn      : V. A. Rassolov, J. A. Pople, M. A. Ratner, and T. L. Windus, J. Chem. Phys. 109, 1223 (1998).

================================================================================
                                        WARNINGS
                       Please study these warnings very carefully!
================================================================================


WARNING: The frozen-core approximation for MP2-gradient calculations is turned on by default.

WARNING: Geometry Optimization
  ===> : Switching off AutoStart
         For restart on a previous wavefunction, please use MOREAD

WARNING: Post HF methods need fully converged wavefunctions
  ===> : Setting SCFConvForced true
         You can overwrite this default with %scf ConvForced false 


================================================================================
                                       INPUT FILE
================================================================================
NAME = 5.inp
|  1> ! MP2 6-31G** opt
|  2> 
|  3> * xyzfile 0 1 /home/vivek/mm-project/vivek/xtb-goat/xtb-goat/f/F_CONF/5.xyz
|  4> 
|  5>                          ****END OF INPUT****
================================================================================

                       *****************************
                       * Geometry Optimization Run *
                       *****************************

Geometry optimization settings:
Update method            Update   .... BFGS
Choice of coordinates    CoordSys .... (2022) Redundant Internals
Initial Hessian          InHess   .... Almloef's Model
Max. no of cycles        MaxIter  .... 69

Convergence Tolerances:
Energy Change            TolE     ....  5.0000e-06 Eh
Max. Gradient            TolMAXG  ....  3.0000e-04 Eh/bohr
RMS Gradient             TolRMSG  ....  1.0000e-04 Eh/bohr
Max. Displacement        TolMAXD  ....  4.0000e-03 bohr
RMS Displacement         TolRMSD  ....  2.0000e-03 bohr
Strict Convergence                .... False

------------------------------------------------------------------------------
                        ORCA OPTIMIZATION COORDINATE SETUP
------------------------------------------------------------------------------

The optimization will be done in redundant internal coordinates (2022)
Making redundant internal coordinates   ...  (2022 redundants) done
Evaluating the initial hessian          ...  (Almloef) done
Evaluating the coordinates              ...  done
Calculating the B-matrix                .... done
Calculating the G-matrix                .... done
The number of degrees of freedom        ....  108

    -----------------------------------------------------------------
                    Redundant Internal Coordinates


    -----------------------------------------------------------------
         Definition                    Initial Value    Approx d2E/dq
    -----------------------------------------------------------------
      1. B(C   1,C   0)                  1.3836         0.639614   
      2. B(H   4,C   2)                  1.0807         0.372653   
      3. B(C   5,C   1)                  1.3845         0.637531   
      4. B(H   7,C   1)                  1.0802         0.373288   
      5. B(C   8,C   6)                  1.4991         0.418548   
      6. B(C   8,C   2)                  1.3902         0.624432   
      7. B(C   8,C   5)                  1.3896         0.625669   
      8. B(H   9,C   0)                  1.0798         0.373826   
      9. B(C  10,H   3)                  1.0801         0.373430   
     10. B(C  10,C   2)                  1.3826         0.642106   
     11. B(C  10,C   0)                  1.3853         0.635764   
     12. B(H  11,C   5)                  1.0815         0.371538   
     13. B(C  12,C   6)                  1.5602         0.334338   
     14. B(H  13,C   6)                  1.0912         0.358507   
     15. B(H  14,C   6)                  1.0925         0.356764   
     16. B(C  15,C  12)                  1.5149         0.394955   
     17. B(N  17,C  12)                  1.4432         0.460189   
     18. B(O  18,H  16)                  0.9711         0.499184   
     19. B(O  18,C  15)                  1.3365         0.681049   
     20. B(H  19,N  17)                  1.0152         0.424492   
     21. B(O  20,H  19)                  2.4108         0.010000   
     22. B(O  20,C  15)                  1.2010         1.120365   
     23. B(H  21,C  12)                  1.0955         0.352945   
     24. B(H  22,N  17)                  1.0142         0.426027   
     25. A(C   1,C   0,C  10)          119.7200         0.438488   
     26. A(C   1,C   0,H   9)          120.1376         0.357036   
     27. A(H   9,C   0,C  10)          120.1422         0.356670   
     28. A(C   0,C   1,C   5)          120.0865         0.438707   
     29. A(C   0,C   1,H   7)          120.1232         0.356948   
     30. A(C   5,C   1,H   7)          119.7903         0.356751   
     31. A(C   8,C   2,C  10)          120.5990         0.437374   
     32. A(H   4,C   2,C   8)          119.4170         0.355393   
     33. A(H   4,C   2,C  10)          119.9834         0.357081   
     34. A(C   1,C   5,C   8)          120.6110         0.436967   
     35. A(C   8,C   5,H  11)          119.6947         0.355331   
     36. A(C   1,C   5,H  11)          119.6902         0.356466   
     37. A(C  12,C   6,H  14)          108.4399         0.317999   
     38. A(H  13,C   6,H  14)          108.9240         0.290213   
     39. A(C   8,C   6,H  14)          110.6006         0.329944   
     40. A(C  12,C   6,H  13)          108.4194         0.318252   
     41. A(C   8,C   6,H  13)          110.4202         0.330210   
     42. A(C   8,C   6,C  12)          109.9789         0.363520   
     43. A(C   5,C   8,C   6)          120.7840         0.405354   
     44. A(C   2,C   8,C   6)          120.3139         0.405212   
     45. A(C   2,C   8,C   5)          118.8437         0.435335   
     46. A(C   0,C  10,H   3)          120.0092         0.356606   
     47. A(C   0,C  10,C   2)          120.1387         0.438795   
     48. A(C   2,C  10,H   3)          119.8521         0.357207   
     49. A(C  15,C  12,N  17)          109.1246         0.377859   
     50. A(C   6,C  12,N  17)          114.8040         0.367169   
     51. A(C   6,C  12,C  15)          106.0890         0.359938   
     52. A(N  17,C  12,H  21)          108.9183         0.332552   
     53. A(C  15,C  12,H  21)          109.1762         0.326222   
     54. A(C   6,C  12,H  21)          108.5981         0.317442   
     55. A(C  12,C  15,O  20)          124.9054         0.442304   
     56. A(C  12,C  15,O  18)          112.1265         0.404659   
     57. A(O  18,C  15,O  20)          122.8999         0.485386   
     58. A(C  12,N  17,H  19)          109.7604         0.339984   
     59. A(H  19,N  17,H  22)          108.9592         0.301580   
     60. A(C  12,N  17,H  22)          110.6296         0.340189   
     61. A(C  15,O  18,H  16)          110.4534         0.373518   
     62. D(C   5,C   1,C   0,C  10)     -0.0934         0.028422   
     63. D(C   5,C   1,C   0,H   9)   -179.9611         0.028422   
     64. D(H   7,C   1,C   0,H   9)      0.0411         0.028422   
     65. D(H   7,C   1,C   0,C  10)    179.9089         0.028422   
     66. D(H  11,C   5,C   1,H   7)     -0.5911         0.028225   
     67. D(H  11,C   5,C   1,C   0)    179.4111         0.028225   
     68. D(C   8,C   5,C   1,C   0)      0.1455         0.028225   
     69. D(C   8,C   5,C   1,H   7)   -179.8567         0.028225   
     70. D(C   6,C   8,C   5,C   1)   -177.5208         0.027118   
     71. D(C   6,C   8,C   2,C  10)    177.6342         0.027005   
     72. D(C   2,C   8,C   5,C   1)     -0.2916         0.027118   
     73. D(C   2,C   8,C   5,H  11)   -179.5571         0.027118   
     74. D(C   5,C   8,C   6,C  12)     95.5230         0.012957   
     75. D(C   5,C   8,C   2,C  10)      0.3916         0.027005   
     76. D(C   5,C   8,C   2,H   4)   -179.9015         0.027005   
     77. D(C   2,C   8,C   6,H  13)     37.9447         0.012957   
     78. D(C   2,C   8,C   6,C  12)    -81.6656         0.012957   
     79. D(C   2,C   8,C   6,H  14)    158.5847         0.012957   
     80. D(C   6,C   8,C   5,H  11)      3.2136         0.027118   
     81. D(C   6,C   8,C   2,H   4)     -2.6589         0.027005   
     82. D(C   5,C   8,C   6,H  13)   -144.8668         0.012957   
     83. D(H   3,C  10,C   2,C   8)    179.7016         0.028659   
     84. D(H   3,C  10,C   2,H   4)     -0.0036         0.028659   
     85. D(C   0,C  10,C   2,C   8)     -0.3458         0.028659   
     86. D(C   0,C  10,C   2,H   4)    179.9490         0.028659   
     87. D(H   3,C  10,C   0,H   9)      0.0132         0.028058   
     88. D(H   3,C  10,C   0,C   1)   -179.8545         0.028058   
     89. D(C   2,C  10,C   0,H   9)   -179.9393         0.028058   
     90. D(C   2,C  10,C   0,C   1)      0.1930         0.028058   
     91. D(C  15,C  12,C   6,H  13)     57.4283         0.010000   
     92. D(C  15,C  12,C   6,C   8)    178.2498         0.010000   
     93. D(N  17,C  12,C   6,H  14)     59.8975         0.010000   
     94. D(N  17,C  12,C   6,H  13)    178.0207         0.010000   
     95. D(N  17,C  12,C   6,C   8)    -61.1578         0.010000   
     96. D(C  15,C  12,C   6,H  14)    -60.6949         0.010000   
     97. D(O  20,C  15,C  12,N  17)    -35.0841         0.011590   
     98. D(O  20,C  15,C  12,C   6)     89.1196         0.011590   
     99. D(O  18,C  15,C  12,H  21)     28.9148         0.011590   
    100. D(O  18,C  15,C  12,N  17)    147.8560         0.011590   
    101. D(O  18,C  15,C  12,C   6)    -87.9403         0.011590   
    102. D(H  22,N  17,C  12,C  15)    164.4083         0.018078   
    103. D(H  22,N  17,C  12,C   6)     45.5017         0.018078   
    104. D(H  19,N  17,C  12,H  21)    163.2371         0.018078   
    105. D(H  19,N  17,C  12,C  15)     44.1354         0.018078   
    106. D(H  19,N  17,C  12,C   6)    -74.7712         0.018078   
    107. D(H  16,O  18,C  15,O  20)      0.8760         0.034557   
    108. D(H  16,O  18,C  15,C  12)    178.0043         0.034557   
    -----------------------------------------------------------------

Number of atoms                         .... 23
Number of degrees of freedom            .... 108


         *************************************************************
         *                GEOMETRY OPTIMIZATION CYCLE   1            *
         *************************************************************
---------------------------------
CARTESIAN COORDINATES (ANGSTROEM)
---------------------------------
  C     -6.475344    0.997302   -1.394099
  C     -5.288045    0.773011   -2.068203
  C     -5.265924    1.143052    0.672232
  H     -7.385882    1.353421    0.510193
  H     -5.257959    1.286986    1.743247
  C     -4.091645    0.733839   -1.372536
  C     -2.769805    0.928652    0.754738
  H     -5.291437    0.627969   -3.138625
  C     -4.067826    0.915281    0.004982
  H     -7.408994    1.027395   -1.935761
  C     -6.461516    1.180348   -0.021052
  H     -3.168468    0.548569   -1.904548
  C     -2.282273    2.397766    0.950337
  H     -2.893548    0.472595    1.738319
  H     -2.002055    0.380199    0.203932
  C     -0.998189    2.311099    1.749330
  H     -0.388596    2.225510    3.554189
  N     -2.029863    3.119942   -0.273463
  O     -1.223848    2.313346    3.066674
  H     -1.161350    2.798034   -0.689069
  O      0.099565    2.196691    1.275697
  H     -3.033586    2.940363    1.534425
  H     -2.784913    2.976472   -0.935272

----------------------------
CARTESIAN COORDINATES (A.U.)
----------------------------
  NO LB      ZA    FRAG     MASS         X           Y           Z
   0 C     6.0000    0    12.011  -12.236627    1.884629   -2.634465
   1 C     6.0000    0    12.011   -9.992957    1.460779   -3.908338
   2 C     6.0000    0    12.011   -9.951155    2.160055    1.270335
   3 H     1.0000    0     1.008  -13.957294    2.557596    0.964125
   4 H     1.0000    0     1.008   -9.936102    2.432052    3.294259
   5 C     6.0000    0    12.011   -7.732088    1.386754   -2.593717
   6 C     6.0000    0    12.011   -5.234173    1.754897    1.426249
   7 H     1.0000    0     1.008   -9.999366    1.186690   -5.931142
   8 C     6.0000    0    12.011   -7.687077    1.729630    0.009415
   9 H     1.0000    0     1.008  -14.000970    1.941495   -3.658057
  10 C     6.0000    0    12.011  -12.210496    2.230534   -0.039783
  11 H     1.0000    0     1.008   -5.987538    1.036645   -3.599074
  12 C     6.0000    0    12.011   -4.312872    4.531121    1.795877
  13 H     1.0000    0     1.008   -5.468014    0.893074    3.284948
  14 H     1.0000    0     1.008   -3.783335    0.718471    0.385376
  15 C     6.0000    0    12.011   -1.886304    4.367345    3.305755
  16 H     1.0000    0     1.008   -0.734341    4.205605    6.716444
  17 N     7.0000    0    14.007   -3.835885    5.895836   -0.516771
  18 O     8.0000    0    15.999   -2.312738    4.371590    5.795173
  19 H     1.0000    0     1.008   -2.194633    5.287517   -1.302151
  20 O     8.0000    0    15.999    0.188150    4.151144    2.410718
  21 H     1.0000    0     1.008   -5.732646    5.556481    2.899643
  22 H     1.0000    0     1.008   -5.262722    5.624717   -1.767407

--------------------------------
INTERNAL COORDINATES (ANGSTROEM)
--------------------------------
 C      0   0   0     0.000000000000     0.00000000     0.00000000
 C      1   0   0     1.383619667466     0.00000000     0.00000000
 C      1   2   0     2.398679671562    89.82166932     0.00000000
 H      3   1   2     2.136523739110    55.96879354   180.14248734
 H      3   1   2     1.080672312562   149.94624603   180.07930327
 C      2   1   3     1.384507796824   120.08645881     0.00000000
 C      3   1   2     2.506668115716   121.68423737     1.40964513
 H      2   1   3     1.080208875620   120.12322649   180.00505532
 C      6   2   1     1.389620329816   120.61103372     0.14551638
 H      1   2   3     1.079817133921   120.13764465   180.03607361
 C      4   3   1     1.080105406799    34.14193961     0.02858889
 H      6   2   1     1.081487883544   119.69021369   179.41110982
 C      7   3   1     1.560205843153   103.57702091   103.95374807
 H      7   3   1     1.091206685954    87.27698928   212.25027312
 H      7   3   1     1.092533309623   136.56132188   327.21007591
 C     13   7   3     1.514850599999   106.08899043   149.08521327
 H     16  13   7     1.906946337840   140.60092700   273.55983715
 N     13   7   3     1.443238684773   114.80398944   269.67763977
 O     17  16  13     0.971098057066    41.04798333   357.08660752
 H     18  13   7     1.015218186404   109.76035320   285.22878588
 O     16  13   7     1.201033391613   124.90536707    89.11959349
 H     13   7   3     1.095463506266   108.59811181    31.84276115
 H     18  13   7     1.014235642087   110.62961631    45.50167033

---------------------------
INTERNAL COORDINATES (A.U.)
---------------------------
 C      0   0   0     0.000000000000     0.00000000     0.00000000
 C      1   0   0     2.614662245018     0.00000000     0.00000000
 C      1   2   0     4.532847662257    89.82166932     0.00000000
 H      3   1   2     4.037444745539    55.96879354   180.14248734
 H      3   1   2     2.042174711254   149.94624603   180.07930327
 C      2   1   3     2.616340566275   120.08645881     0.00000000
 C      3   1   2     4.736916247336   121.68423737     1.40964513
 H      2   1   3     2.041298942353   120.12322649   180.00505532
 C      6   2   1     2.626001853482   120.61103372     0.14551638
 H      1   2   3     2.040558657827   120.13764465   180.03607361
 C      4   3   1     2.041103414619    34.14193961     0.02858889
 H      6   2   1     2.043715917053   119.69021369   179.41110982
 C      7   3   1     2.948361756103   103.57702091   103.95374807
 H      7   3   1     2.062081791956    87.27698928   212.25027312
 H      7   3   1     2.064588747375   136.56132188   327.21007591
 C     13   7   3     2.862652767805   106.08899043   149.08521327
 H     16  13   7     3.603606330603   140.60092700   273.55983715
 N     13   7   3     2.727325860102   114.80398944   269.67763977
 O     17  16  13     1.835109377037    41.04798333   357.08660752
 H     18  13   7     1.918484338479   109.76035320   285.22878588
 O     16  13   7     2.269624187843   124.90536707    89.11959349
 H     13   7   3     2.070126016549   108.59811181    31.84276115
 H     18  13   7     1.916627598807   110.62961631    45.50167033

---------------------
BASIS SET INFORMATION
---------------------
There are 4 groups of distinct atoms

 Group   1 Type C   : 10s4p1d contracted to 3s2p1d pattern {631/31/1}
 Group   2 Type H   : 4s1p contracted to 2s1p pattern {31/1}
 Group   3 Type N   : 10s4p1d contracted to 3s2p1d pattern {631/31/1}
 Group   4 Type O   : 10s4p1d contracted to 3s2p1d pattern {631/31/1}

Atom   0C    basis set group =>   1
Atom   1C    basis set group =>   1
Atom   2C    basis set group =>   1
Atom   3H    basis set group =>   2
Atom   4H    basis set group =>   2
Atom   5C    basis set group =>   1
Atom   6C    basis set group =>   1
Atom   7H    basis set group =>   2
Atom   8C    basis set group =>   1
Atom   9H    basis set group =>   2
Atom  10C    basis set group =>   1
Atom  11H    basis set group =>   2
Atom  12C    basis set group =>   1
Atom  13H    basis set group =>   2
Atom  14H    basis set group =>   2
Atom  15C    basis set group =>   1
Atom  16H    basis set group =>   2
Atom  17N    basis set group =>   3
Atom  18O    basis set group =>   4
Atom  19H    basis set group =>   2
Atom  20O    basis set group =>   4
Atom  21H    basis set group =>   2
Atom  22H    basis set group =>   2
------------------------------------------------------------------------------
                             ORCA STARTUP CALCULATIONS
------------------------------------------------------------------------------
------------------------------------------------------------------------------
                   ___                                                        
                  /   \      - P O W E R E D   B Y -                         
                 /     \                                                     
                 |  |  |   _    _      __       _____    __    __             
                 |  |  |  | |  | |    /  \     |  _  \  |  |  /  |          
                  \  \/   | |  | |   /    \    | | | |  |  | /  /          
                 / \  \   | |__| |  /  /\  \   | |_| |  |  |/  /          
                |  |  |   |  __  | /  /__\  \  |    /   |      \           
                |  |  |   | |  | | |   __   |  |    \   |  |\   \          
                \     /   | |  | | |  |  |  |  | |\  \  |  | \   \       
                 \___/    |_|  |_| |__|  |__|  |_| \__\ |__|  \__/        
                                                                              
                      - O R C A' S   B I G   F R I E N D -                    
                                      &                                       
                       - I N T E G R A L  F E E D E R -                       
                                                                              
 v1 FN, 2020, v2 2021, v3 2022-2024                                           
------------------------------------------------------------------------------


----------------------
SHARK INTEGRAL PACKAGE
----------------------

Number of atoms                             ...     23
Number of basis functions                   ...    223
Number of shells                            ...    105
Maximum angular momentum                    ...      2
Integral batch strategy                     ... SHARK/LIBINT Hybrid
RI-J (if used) integral strategy            ... SPLIT-RIJ (Revised 2003 algorithm where possible)
Printlevel                                  ...      1
Contraction scheme used                     ... SEGMENTED contraction
Prescreening option                         ... SCHWARTZ
   Thresh                                   ... 2.500e-11
   Tcut                                     ... 2.500e-12
   Tpresel                                  ... 2.500e-12 
Coulomb Range Separation                    ... NOT USED
Exchange Range Separation                   ... NOT USED
Multipole approximations                    ... NOT USED
Finite Nucleus Model                        ... NOT USED
CABS basis                                  ... NOT available
Auxiliary Coulomb fitting basis             ... NOT available
Auxiliary J/K fitting basis                 ... NOT available
Auxiliary Correlation fitting basis         ... NOT available
Auxiliary 'external' fitting basis          ... NOT available

Checking pre-screening integrals            ... done (  0.0 sec) Dimension = 105
   => SHARK Basis and OBASIS are compatible. Storing Pre-screening
Shell pair information
Shell pair cut-off parameter TPreSel        ...   2.5e-12
Total number of shell pairs                 ...      5565
Shell pairs after pre-screening             ...      4680
Total number of primitive shell pairs       ...     28015
Primitive shell pairs kept                  ...     14952
          la=0 lb=0:   1434 shell pairs
          la=1 lb=0:   1715 shell pairs
          la=1 lb=1:    545 shell pairs
          la=2 lb=0:    573 shell pairs
          la=2 lb=1:    351 shell pairs
          la=2 lb=2:     62 shell pairs

Checking whether 4 symmetric matrices of dimension 223 fit in memory
:Max Core in MB      =   4096.00
 MB in use           =      7.53
 MB left             =   4088.47
 MB needed           =      0.76
 Data fit in memory  = YES
Calculating Nuclear repulsion               ... done (  0.0 sec) ENN=    673.981182309571 Eh

Diagonalization of the overlap matrix:
Smallest eigenvalue                        ... 4.376e-04
Time for diagonalization                   ...    0.003 sec
Threshold for overlap eigenvalues          ... 1.000e-07
Number of eigenvalues below threshold      ... 0
Time for construction of square roots      ...    0.001 sec
Total time needed                          ...    0.004 sec

-------------------
DFT GRID GENERATION
-------------------

General Integration Accuracy     IntAcc      ... 4.388
Radial Grid Type                 RadialGrid  ... OptM3 with GC (2021)
Angular Grid (max. ang.)         AngularGrid ... 4 (Lebedev-302)
Angular grid pruning method      GridPruning ... 4 (adaptive)
Weight generation scheme         WeightScheme... mBecke (2022)
Basis function cutoff            BFCut       ... 1.0000e-11
Integration weight cutoff        WCut        ... 1.0000e-14
Partially contracted basis set               ... off
Rotationally invariant grid construction     ... off
Angular grids for H and He will be reduced by one unit

Total number of grid points                  ...   107188
Total number of batches                      ...     1686
Average number of points per batch           ...       63
Average number of grid points per atom       ...     4660
Grids setup in   0.5 sec
Initializing property integral containers    ... done (  0.0 sec)

SHARK setup successfully completed in   0.6 seconds

Maximum memory used throughout the entire STARTUP-calculation: 43.2 MB
-------------------------------------------------------------------------------
                                 ORCA GUESS
                   Start orbitals & Density for SCF / CASSCF
-------------------------------------------------------------------------------

------------
SCF SETTINGS
------------
Hamiltonian:
 Ab initio Hamiltonian  Method          .... Hartree-Fock(GTOs)


General Settings:
 Integral files         IntName         .... 5
 Hartree-Fock type      HFTyp           .... RHF
 Total Charge           Charge          ....    0
 Multiplicity           Mult            ....    1
 Number of Electrons    NEL             ....   88
 Basis Dimension        Dim             ....  223
 Nuclear Repulsion      ENuc            ....    673.9811823096 Eh

Convergence Acceleration:
 AO-DIIS                CNVDIIS         .... on
   Start iteration      DIISMaxIt       ....    12
   Startup error        DIISStart       ....  0.200000
   # of expansion vecs  DIISMaxEq       ....     5
   Bias factor          DIISBfac        ....   1.050
   Max. coefficient     DIISMaxC        ....  10.000
 MO-DIIS                CNVKDIIS        .... off
 Trust-Rad. Augm. Hess. CNVTRAH         .... auto
   Auto Start mean grad. ratio tolernc. ....  1.125000
   Auto Start start iteration           ....    50
   Auto Start num. interpolation iter.  ....    10
   Max. Number of Micro iterations      ....    24
   Max. Number of Macro iterations      .... Maxiter - #DIIS iter
   Number of Davidson start vectors     ....     2
   Converg. threshold    (grad. norm)   ....   1.000e-05
   Grad. Scal. Fac. for Micro threshold ....   0.100
   Minimum threshold for Micro iter.    ....   1.000e-02
   NR start threshold (gradient norm)   ....   1.000e-04
   Initial trust radius                 ....   0.400
   Minimum AH scaling param. (alpha)    ....   1.000
   Maximum AH scaling param. (alpha)    .... 1000.000
   Quad. conv. algorithm                .... NR
   White noise on init. David. guess    .... on
   Maximum white noise                  ....   0.010
   Pseudo random numbers                .... off
   Inactive MOs                         .... canonical
   Orbital update algorithm             .... Taylor
   Preconditioner                       .... Diag
   Full preconditioner red. dimension   ....   250
 SOSCF                 CNVSOSCF           .... on
   Start iteration     SOSCFMaxIt         ....   150
   Startup grad/error  SOSCFStart         ....  0.003300
   Hessian update      SOSCFHessUp        .... L-BFGS
   Autom. constraints  SOSCFAutoConstrain .... off
 Level Shifting         CNVShift        .... on
   Level shift para.    LevelShift      ....    0.2500
   Turn off err/grad.   ShiftErr        ....    0.0010
 Zerner damping         CNVZerner       .... off
 Static damping         CNVDamp         .... on
   Fraction old density DampFac         ....    0.7000
   Max. Damping (<1)    DampMax         ....    0.9800
   Min. Damping (>=0)   DampMin         ....    0.0000
   Turn off err/grad.   DampErr         ....    0.1000

SCF Procedure:
 Maximum # iterations   MaxIter         ....   125
 SCF integral mode      SCFMode         .... Direct
   Integral package                     .... SHARK and LIBINT hybrid scheme
 Reset frequency        DirectResetFreq ....    20
 Integral Threshold     Thresh          ....  2.500e-11 Eh
 Primitive CutOff       TCut            ....  2.500e-12 Eh

Convergence Tolerance:
 Convergence Check Mode ConvCheckMode   .... Total+1el-Energy
 Convergence forced     ConvForced      .... 1
 Energy Change          TolE            ....  1.000e-08 Eh
 1-El. energy change                    ....  1.000e-05 Eh
 Orbital Gradient       TolG            ....  1.000e-05
 Orbital Rotation angle TolX            ....  1.000e-05
 DIIS Error             TolErr          ....  5.000e-07

------------------------------
INITIAL GUESS: MODEL POTENTIAL
------------------------------
Loading Hartree-Fock densities                     ... done
Calculating cut-offs                               ... done
Initializing the effective Hamiltonian             ... done
Setting up the integral package (SHARK)            ... done
Starting the Coulomb interaction                   ... done (   0.1 sec)
Making the grid                                    ... done (   0.1 sec)
Mapping shells                                     ... done
Starting the XC term evaluation                    ... done (   0.1 sec)
Transforming the Hamiltonian                       ... done (   0.0 sec)
Diagonalizing the Hamiltonian                      ... done (   0.0 sec)
Back transforming the eigenvectors                 ... done (   0.0 sec)
Now organizing SCF variables                       ... done
                      ------------------
                      INITIAL GUESS DONE (   0.3 sec)
                      ------------------
             **** ENERGY FILE WAS UPDATED (5.en.tmp) ****
Finished Guess after   0.3 sec
Maximum memory used throughout the entire GUESS-calculation: 13.9 MB

-------------------------------------------------------------------------------------------
                                      ORCA LEAN-SCF
                              memory conserving SCF solver
-------------------------------------------------------------------------------------------

----------------------------------------D-I-I-S--------------------------------------------
Iteration    Energy (Eh)           Delta-E    RMSDP     MaxDP     DIISErr   Damp  Time(sec)
-------------------------------------------------------------------------------------------
               ***  Starting incremental Fock matrix formation  ***
    1    -550.9582800120217598     0.00e+00  2.47e-03  6.50e-02  2.54e-01  0.700   3.1
    2    -551.1252160403691960    -1.67e-01  1.89e-03  4.64e-02  1.57e-01  0.700   2.9
                               ***Turning on AO-DIIS***
    3    -551.2259343382454517    -1.01e-01  1.18e-03  2.07e-02  8.95e-02  0.700   2.9
    4    -551.2902000434196452    -6.43e-02  2.82e-03  4.83e-02  6.47e-02  0.000   2.9
    5    -551.4337899375232155    -1.44e-01  2.78e-04  7.81e-03  7.71e-03  0.000   3.0
    6    -551.4343025241221312    -5.13e-04  1.26e-04  3.46e-03  3.93e-03  0.000   2.7
                              *** Initializing SOSCF ***
---------------------------------------S-O-S-C-F--------------------------------------
Iteration    Energy (Eh)           Delta-E    RMSDP     MaxDP     MaxGrad    Time(sec)
--------------------------------------------------------------------------------------
    7    -551.4344113705049040    -1.09e-04  6.48e-05  2.67e-03  2.68e-03     2.6
               *** Restarting incremental Fock matrix formation ***
    8    -551.4344432443858750    -3.19e-05  3.18e-05  9.48e-04  7.54e-04     3.1
    9    -551.4344507889800298    -7.54e-06  3.31e-05  1.54e-03  4.93e-04     2.4
   10    -551.4344534525982908    -2.66e-06  5.91e-06  2.78e-04  1.28e-04     2.4
   11    -551.4344536663945746    -2.14e-07  2.26e-06  7.73e-05  4.22e-05     2.2
   12    -551.4344537064014276    -4.00e-08  7.54e-07  3.81e-05  1.02e-05     2.0
   13    -551.4344537106064763    -4.21e-09  3.39e-07  1.34e-05  2.10e-06     1.8
                 **** Energy Check signals convergence ****

               *****************************************************
               *                     SUCCESS                       *
               *           SCF CONVERGED AFTER  13 CYCLES          *
               *****************************************************

             **** ENERGY FILE WAS UPDATED (5.en.tmp) ****

----------------
TOTAL SCF ENERGY
----------------

Total Energy       :       -551.43445370995892 Eh          -15005.29434 eV

Components:
Nuclear Repulsion  :        673.98118230957130 Eh           18339.96036 eV
Electronic Energy  :      -1225.41563601953021 Eh          -33345.25470 eV
One Electron Energy:      -2088.39373183489852 Eh          -56828.08253 eV
Two Electron Energy:        862.97809581536831 Eh           23482.82783 eV

Virial components:
Potential Energy   :      -1102.44989142980899 Eh          -29999.18667 eV
Kinetic Energy     :        551.01543771985007 Eh           14993.89234 eV
Virial Ratio       :          2.00076044328602

---------------
SCF CONVERGENCE
---------------

  Last Energy change         ...    4.2050e-09  Tolerance :   1.0000e-08
  Last MAX-Density change    ...    1.3429e-05  Tolerance :   1.0000e-07
  Last RMS-Density change    ...    3.3857e-07  Tolerance :   5.0000e-09
  Last DIIS Error            ...    2.6813e-03  Tolerance :   5.0000e-07
  Last Orbital Gradient      ...    2.1041e-06  Tolerance :   1.0000e-05
  Last Orbital Rotation      ...    9.7578e-06  Tolerance :   1.0000e-05


----------------
ORBITAL ENERGIES
----------------

  NO   OCC          E(Eh)            E(eV) 
   0   2.0000     -20.618957      -561.0703 
   1   2.0000     -20.554758      -559.3234 
   2   2.0000     -15.541442      -422.9041 
   3   2.0000     -11.386051      -309.8302 
   4   2.0000     -11.274474      -306.7940 
   5   2.0000     -11.244033      -305.9657 
   6   2.0000     -11.239446      -305.8409 
   7   2.0000     -11.237811      -305.7964 
   8   2.0000     -11.237535      -305.7889 
   9   2.0000     -11.235210      -305.7256 
  10   2.0000     -11.234499      -305.7063 
  11   2.0000     -11.234006      -305.6929 
  12   2.0000      -1.470564       -40.0161 
  13   2.0000      -1.364490       -37.1297 
  14   2.0000      -1.199487       -32.6397 
  15   2.0000      -1.161092       -31.5949 
  16   2.0000      -1.060874       -28.8678 
  17   2.0000      -1.021577       -27.7985 
  18   2.0000      -0.992073       -26.9957 
  19   2.0000      -0.910716       -24.7818 
  20   2.0000      -0.834151       -22.6984 
  21   2.0000      -0.812874       -22.1194 
  22   2.0000      -0.790696       -21.5159 
  23   2.0000      -0.723521       -19.6880 
  24   2.0000      -0.701318       -19.0838 
  25   2.0000      -0.698147       -18.9975 
  26   2.0000      -0.649526       -17.6745 
  27   2.0000      -0.647787       -17.6272 
  28   2.0000      -0.631704       -17.1895 
  29   2.0000      -0.621936       -16.9237 
  30   2.0000      -0.594914       -16.1884 
  31   2.0000      -0.588236       -16.0067 
  32   2.0000      -0.582865       -15.8606 
  33   2.0000      -0.577188       -15.7061 
  34   2.0000      -0.551145       -14.9974 
  35   2.0000      -0.520677       -14.1683 
  36   2.0000      -0.502122       -13.6634 
  37   2.0000      -0.493531       -13.4296 
  38   2.0000      -0.490549       -13.3485 
  39   2.0000      -0.478206       -13.0127 
  40   2.0000      -0.446194       -12.1416 
  41   2.0000      -0.390183       -10.6174 
  42   2.0000      -0.341490        -9.2924 
  43   2.0000      -0.330717        -8.9993 
  44   0.0000       0.133088         3.6215 
  45   0.0000       0.136909         3.7255 
  46   0.0000       0.192622         5.2415 
  47   0.0000       0.221812         6.0358 
  48   0.0000       0.230682         6.2772 
  49   0.0000       0.254465         6.9243 
  50   0.0000       0.262191         7.1346 
  51   0.0000       0.280618         7.6360 
  52   0.0000       0.297752         8.1023 
  53   0.0000       0.311309         8.4712 
  54   0.0000       0.320116         8.7108 
*Only the first 10 virtual orbitals were printed.

                    ********************************
                    * MULLIKEN POPULATION ANALYSIS *
                    ********************************

-----------------------
MULLIKEN ATOMIC CHARGES
-----------------------
   0 C :   -0.155309
   1 C :   -0.139824
   2 C :   -0.149092
   3 H :    0.153439
   4 H :    0.151106
   5 C :   -0.173795
   6 C :   -0.261477
   7 H :    0.153452
   8 C :   -0.015815
   9 H :    0.151863
  10 C :   -0.140137
  11 H :    0.150868
  12 C :   -0.003024
  13 H :    0.146832
  14 H :    0.144354
  15 C :    0.810878
  16 H :    0.372091
  17 N :   -0.701767
  18 O :   -0.638925
  19 H :    0.287349
  20 O :   -0.588180
  21 H :    0.163477
  22 H :    0.281637
Sum of atomic charges:    0.0000000

--------------------------------
MULLIKEN REDUCED ORBITAL CHARGES
--------------------------------
  0 C s       :     3.146331  s :     3.146331
      pz      :     0.950375  p :     2.964441
      px      :     1.021927
      py      :     0.992139
      dz2     :     0.011900  d :     0.044538
      dxz     :     0.015382
      dyz     :     0.006213
      dx2y2   :     0.006684
      dxy     :     0.004358

  1 C s       :     3.145472  s :     3.145472
      pz      :     1.058002  p :     2.949313
      px      :     0.915477
      py      :     0.975834
      dz2     :     0.012646  d :     0.045040
      dxz     :     0.013765
      dyz     :     0.003472
      dx2y2   :     0.007354
      dxy     :     0.007802

  2 C s       :     3.135976  s :     3.135976
      pz      :     1.063083  p :     2.968795
      px      :     0.905476
      py      :     1.000236
      dz2     :     0.012644  d :     0.044321
      dxz     :     0.013622
      dyz     :     0.003400
      dx2y2   :     0.007314
      dxy     :     0.007341

  3 H s       :     0.832803  s :     0.832803
      pz      :     0.003539  p :     0.013758
      px      :     0.007689
      py      :     0.002530

  4 H s       :     0.835070  s :     0.835070
      pz      :     0.009768  p :     0.013824
      px      :     0.001484
      py      :     0.002572

  5 C s       :     3.147503  s :     3.147503
      pz      :     0.939855  p :     2.981854
      px      :     1.029912
      py      :     1.012086
      dz2     :     0.011941  d :     0.044438
      dxz     :     0.015227
      dyz     :     0.006391
      dx2y2   :     0.006417
      dxy     :     0.004463

  6 C s       :     3.234046  s :     3.234046
      pz      :     1.071523  p :     2.979551
      px      :     0.971315
      py      :     0.936713
      dz2     :     0.008863  d :     0.047880
      dxz     :     0.010845
      dyz     :     0.008443
      dx2y2   :     0.010224
      dxy     :     0.009506

  7 H s       :     0.832793  s :     0.832793
      pz      :     0.009793  p :     0.013755
      px      :     0.001489
      py      :     0.002472

  8 C s       :     3.129811  s :     3.129811
      pz      :     0.930804  p :     2.834042
      px      :     0.945709
      py      :     0.957529
      dz2     :     0.013723  d :     0.051962
      dxz     :     0.016468
      dyz     :     0.007367
      dx2y2   :     0.007705
      dxy     :     0.006699

  9 H s       :     0.834337  s :     0.834337
      pz      :     0.003606  p :     0.013799
      px      :     0.007792
      py      :     0.002401

 10 C s       :     3.146137  s :     3.146137
      pz      :     0.950551  p :     2.948907
      px      :     1.022414
      py      :     0.975942
      dz2     :     0.011889  d :     0.045093
      dxz     :     0.015427
      dyz     :     0.006642
      dx2y2   :     0.006419
      dxy     :     0.004715

 11 H s       :     0.835334  s :     0.835334
      pz      :     0.003517  p :     0.013798
      px      :     0.007561
      py      :     0.002720

 12 C s       :     3.195592  s :     3.195592
      pz      :     0.863604  p :     2.736441
      px      :     0.959624
      py      :     0.913213
      dz2     :     0.013442  d :     0.070991
      dxz     :     0.017898
      dyz     :     0.015873
      dx2y2   :     0.014580
      dxy     :     0.009198

 13 H s       :     0.840617  s :     0.840617
      pz      :     0.007795  p :     0.012552
      px      :     0.001686
      py      :     0.003071

 14 H s       :     0.843249  s :     0.843249
      pz      :     0.003421  p :     0.012398
      px      :     0.005405
      py      :     0.003572

 15 C s       :     2.941236  s :     2.941236
      pz      :     0.643223  p :     2.100177
      px      :     0.833272
      py      :     0.623682
      dz2     :     0.043783  d :     0.147710
      dxz     :     0.044467
      dyz     :     0.019386
      dx2y2   :     0.018516
      dxy     :     0.021557

 16 H s       :     0.586453  s :     0.586453
      pz      :     0.011320  p :     0.041456
      px      :     0.021208
      py      :     0.008928

 17 N s       :     3.602406  s :     3.602406
      pz      :     1.129605  p :     4.065828
      px      :     1.203185
      py      :     1.733037
      dz2     :     0.003368  d :     0.033533
      dxz     :     0.011248
      dyz     :     0.009437
      dx2y2   :     0.003760
      dxy     :     0.005720

 18 O s       :     3.838855  s :     3.838855
      pz      :     1.332164  p :     4.774466
      px      :     1.595543
      py      :     1.846759
      dz2     :     0.008340  d :     0.025604
      dxz     :     0.007437
      dyz     :     0.003553
      dx2y2   :     0.004598
      dxy     :     0.001676

 19 H s       :     0.686118  s :     0.686118
      pz      :     0.005321  p :     0.026533
      px      :     0.013743
      py      :     0.007469

 20 O s       :     3.875293  s :     3.875293
      pz      :     1.766729  p :     4.679989
      px      :     1.433876
      py      :     1.479384
      dz2     :     0.003699  d :     0.032899
      dxz     :     0.008607
      dyz     :     0.002207
      dx2y2   :     0.007104
      dxy     :     0.011281

 21 H s       :     0.824532  s :     0.824532
      pz      :     0.003328  p :     0.011991
      px      :     0.005185
      py      :     0.003477

 22 H s       :     0.691712  s :     0.691712
      pz      :     0.008818  p :     0.026650
      px      :     0.010651
      py      :     0.007181



                     *******************************
                     * LOEWDIN POPULATION ANALYSIS *
                     *******************************

----------------------
LOEWDIN ATOMIC CHARGES
----------------------
   0 C :   -0.079319
   1 C :   -0.067928
   2 C :   -0.079900
   3 H :    0.077431
   4 H :    0.074959
   5 C :   -0.089621
   6 C :   -0.109519
   7 H :    0.077339
   8 C :   -0.022650
   9 H :    0.076630
  10 C :   -0.065127
  11 H :    0.073984
  12 C :   -0.014119
  13 H :    0.075899
  14 H :    0.074109
  15 C :    0.247272
  16 H :    0.201848
  17 N :   -0.282837
  18 O :   -0.206582
  19 H :    0.135986
  20 O :   -0.307038
  21 H :    0.078548
  22 H :    0.130636

-------------------------------
LOEWDIN REDUCED ORBITAL CHARGES
-------------------------------
  0 C s       :     2.886176  s :     2.886176
      pz      :     1.058762  p :     3.099484
      px      :     1.058386
      py      :     0.982337
      dz2     :     0.027041  d :     0.093659
      dxz     :     0.034464
      dyz     :     0.012316
      dx2y2   :     0.012234
      dxy     :     0.007603

  1 C s       :     2.887004  s :     2.887004
      pz      :     1.057964  p :     3.086355
      px      :     1.062999
      py      :     0.965392
      dz2     :     0.025910  d :     0.094569
      dxz     :     0.031108
      dyz     :     0.005292
      dx2y2   :     0.016303
      dxy     :     0.015956

  2 C s       :     2.884008  s :     2.884008
      pz      :     1.055944  p :     3.102057
      px      :     1.054126
      py      :     0.991987
      dz2     :     0.026242  d :     0.093836
      dxz     :     0.030904
      dyz     :     0.005239
      dx2y2   :     0.016522
      dxy     :     0.014930

  3 H s       :     0.881221  s :     0.881221
      pz      :     0.011081  p :     0.041348
      px      :     0.022248
      py      :     0.008019

  4 H s       :     0.883483  s :     0.883483
      pz      :     0.027825  p :     0.041558
      px      :     0.005515
      py      :     0.008218

  5 C s       :     2.886112  s :     2.886112
      pz      :     1.051350  p :     3.109509
      px      :     1.059120
      py      :     0.999039
      dz2     :     0.027115  d :     0.094001
      dxz     :     0.034638
      dyz     :     0.012567
      dx2y2   :     0.011866
      dxy     :     0.007814

  6 C s       :     2.890874  s :     2.890874
      pz      :     1.068580  p :     3.127284
      px      :     1.034367
      py      :     1.024337
      dz2     :     0.016190  d :     0.091362
      dxz     :     0.020581
      dyz     :     0.015267
      dx2y2   :     0.020564
      dxy     :     0.018760

  7 H s       :     0.881283  s :     0.881283
      pz      :     0.027933  p :     0.041378
      px      :     0.005556
      py      :     0.007889

  8 C s       :     2.865781  s :     2.865781
      pz      :     1.060682  p :     3.044905
      px      :     1.040362
      py      :     0.943861
      dz2     :     0.030785  d :     0.111964
      dxz     :     0.038298
      dyz     :     0.014599
      dx2y2   :     0.015275
      dxy     :     0.013007

  9 H s       :     0.881823  s :     0.881823
      pz      :     0.011273  p :     0.041546
      px      :     0.022533
      py      :     0.007740

 10 C s       :     2.886723  s :     2.886723
      pz      :     1.061128  p :     3.083790
      px      :     1.059676
      py      :     0.962986
      dz2     :     0.026967  d :     0.094614
      dxz     :     0.034570
      dyz     :     0.013047
      dx2y2   :     0.011802
      dxy     :     0.008230

 11 H s       :     0.884416  s :     0.884416
      pz      :     0.011060  p :     0.041600
      px      :     0.021907
      py      :     0.008633

 12 C s       :     2.871910  s :     2.871910
      pz      :     0.968610  p :     3.000695
      px      :     1.019105
      py      :     1.012981
      dz2     :     0.027687  d :     0.141513
      dxz     :     0.035265
      dyz     :     0.031068
      dx2y2   :     0.029655
      dxy     :     0.017838

 13 H s       :     0.883590  s :     0.883590
      pz      :     0.023072  p :     0.040511
      px      :     0.006616
      py      :     0.010824

 14 H s       :     0.885727  s :     0.885727
      pz      :     0.011534  p :     0.040164
      px      :     0.016373
      py      :     0.012258

 15 C s       :     2.839427  s :     2.839427
      pz      :     0.888355  p :     2.594312
      px      :     1.046548
      py      :     0.659409
      dz2     :     0.097943  d :     0.318989
      dxz     :     0.100880
      dyz     :     0.039775
      dx2y2   :     0.039732
      dxy     :     0.040658

 16 H s       :     0.678074  s :     0.678074
      pz      :     0.031559  p :     0.120078
      px      :     0.060871
      py      :     0.027647

 17 N s       :     3.177199  s :     3.177199
      pz      :     1.160102  p :     4.045160
      px      :     1.182046
      py      :     1.703013
      dz2     :     0.009218  d :     0.060478
      dxz     :     0.021816
      dyz     :     0.015381
      dx2y2   :     0.007286
      dxy     :     0.006777

 18 O s       :     3.457730  s :     3.457730
      pz      :     1.341458  p :     4.700660
      px      :     1.565455
      py      :     1.793746
      dz2     :     0.018779  d :     0.048192
      dxz     :     0.016580
      dyz     :     0.005754
      dx2y2   :     0.005838
      dxy     :     0.001241

 19 H s       :     0.780255  s :     0.780255
      pz      :     0.017084  p :     0.083759
      px      :     0.040362
      py      :     0.026312

 20 O s       :     3.545864  s :     3.545864
      pz      :     1.740268  p :     4.703632
      px      :     1.511917
      py      :     1.451447
      dz2     :     0.007996  d :     0.057543
      dxz     :     0.017625
      dyz     :     0.002611
      dx2y2   :     0.016814
      dxy     :     0.012498

 21 H s       :     0.881654  s :     0.881654
      pz      :     0.011264  p :     0.039798
      px      :     0.016675
      py      :     0.011859

 22 H s       :     0.785574  s :     0.785574
      pz      :     0.027161  p :     0.083791
      px      :     0.032351
      py      :     0.024279



                      *****************************
                      * MAYER POPULATION ANALYSIS *
                      *****************************

  NA   - Mulliken gross atomic population
  ZA   - Total nuclear charge
  QA   - Mulliken gross atomic charge
  VA   - Mayer's total valence
  BVA  - Mayer's bonded valence
  FA   - Mayer's free valence

  ATOM       NA         ZA         QA         VA         BVA        FA
  0 C      6.1553     6.0000    -0.1553     3.9257     3.9257     0.0000
  1 C      6.1398     6.0000    -0.1398     3.9194     3.9194     0.0000
  2 C      6.1491     6.0000    -0.1491     3.9204     3.9204     0.0000
  3 H      0.8466     1.0000     0.1534     0.9525     0.9525    -0.0000
  4 H      0.8489     1.0000     0.1511     0.9538     0.9538     0.0000
  5 C      6.1738     6.0000    -0.1738     3.9329     3.9329     0.0000
  6 C      6.2615     6.0000    -0.2615     3.7972     3.7972     0.0000
  7 H      0.8465     1.0000     0.1535     0.9524     0.9524     0.0000
  8 C      6.0158     6.0000    -0.0158     3.8841     3.8841     0.0000
  9 H      0.8481     1.0000     0.1519     0.9532     0.9532     0.0000
 10 C      6.1401     6.0000    -0.1401     3.9244     3.9244     0.0000
 11 H      0.8491     1.0000     0.1509     0.9557     0.9557    -0.0000
 12 C      6.0030     6.0000    -0.0030     3.7302     3.7302    -0.0000
 13 H      0.8532     1.0000     0.1468     0.9472     0.9472    -0.0000
 14 H      0.8556     1.0000     0.1444     0.9519     0.9519     0.0000
 15 C      5.1891     6.0000     0.8109     3.6920     3.6920    -0.0000
 16 H      0.6279     1.0000     0.3721     0.8719     0.8719    -0.0000
 17 N      7.7018     7.0000    -0.7018     2.7479     2.7479    -0.0000
 18 O      8.6389     8.0000    -0.6389     1.8353     1.8353    -0.0000
 19 H      0.7127     1.0000     0.2873     0.9062     0.9062     0.0000
 20 O      8.5882     8.0000    -0.5882     1.8942     1.8942    -0.0000
 21 H      0.8365     1.0000     0.1635     0.9407     0.9407    -0.0000
 22 H      0.7184     1.0000     0.2816     0.9122     0.9122     0.0000

  Mayer bond orders larger than 0.100000
B(  0-C ,  1-C ) :   1.4569 B(  0-C ,  9-H ) :   0.9613 B(  0-C , 10-C ) :   1.4420 
B(  1-C ,  5-C ) :   1.4372 B(  1-C ,  7-H ) :   0.9605 B(  2-C ,  4-H ) :   0.9585 
B(  2-C ,  8-C ) :   1.4355 B(  2-C , 10-C ) :   1.4560 B(  3-H , 10-C ) :   0.9605 
B(  5-C ,  8-C ) :   1.4452 B(  5-C , 11-H ) :   0.9589 B(  6-C ,  8-C ) :   0.9855 
B(  6-C , 12-C ) :   0.9216 B(  6-C , 13-H ) :   0.9623 B(  6-C , 14-H ) :   0.9692 
B( 12-C , 15-C ) :   0.9270 B( 12-C , 17-N ) :   0.9866 B( 12-C , 21-H ) :   0.9557 
B( 15-C , 18-O ) :   0.9795 B( 15-C , 20-O ) :   1.8207 B( 16-H , 18-O ) :   0.8404 
B( 17-N , 19-H ) :   0.8903 B( 17-N , 22-H ) :   0.8955 

-------
TIMINGS
-------

Total SCF time: 0 days 0 hours 0 min 35 sec 

Total time                  ....      35.761 sec
Sum of individual times     ....      34.094 sec  ( 95.3%)

SCF preparation             ....       0.019 sec  (  0.1%)
Fock matrix formation       ....      33.987 sec  ( 95.0%)
  Startup                   ....       0.001 sec  (  0.0% of F)
  Coulomb+Exchange Fock     ....      35.635 sec  (104.8% of F)
Diagonalization             ....       0.000 sec  (  0.0%)
Density matrix formation    ....       0.006 sec  (  0.0%)
Total Energy calculation    ....       0.001 sec  (  0.0%)
Population analysis         ....       0.003 sec  (  0.0%)
Orbital Transformation      ....       0.010 sec  (  0.0%)
Orbital Orthonormalization  ....       0.000 sec  (  0.0%)
DIIS solution               ....       0.044 sec  (  0.1%)
SOSCF solution              ....       0.021 sec  (  0.1%)
Finished LeanSCF after  35.8 sec

Maximum memory used throughout the entire LEANSCF-calculation: 17.5 MB

------------------------------------------------------------------------------
                                ORCA  MP2 
------------------------------------------------------------------------------

Freezing NCore=24 chemical core electrons
MP2 will be done in the AO integral direct mode
The Q1-step will be done using symmetric double matrices
Dimension of the basis                    ...  223
Memory devoted for MP2                    ... 4096 MB   
Memory needed for all in one shot         ... 1361 MB
Number of MOs that can be treated together...   95      
MP2 density construction                  ... relaxed
The MP2 gradient is requested => amplitudes will be stored on disk
Total number of MOs              ...   32
Number of MOs treated per batch  ...   32 
Number of batches necessary      ...    1 
OPERATORS   0/  0 PASS   0
-----------------------------------------------
 MP2 CORRELATION ENERGY   :     -1.707220375 Eh
-----------------------------------------------


---------------------
MP2 DENSITY FORMATION
---------------------

Completing the external part of the density      ... done
Storing the unrelaxed density                    ... done

Calculating G(D)                                 ... done
Completing the Lagrangian                        ... done
Solving the Z-vector equations                   ... 
-------------------
SHARK CP-SCF DRIVER
-------------------

Dimension of the orbital basis          ...    223
Dimension of the CPSCF-problem          ...   7876
Number of operators                     ...      1
Max. number of iterations               ...    128
Convergence Tolerance                   ... 1.0e-04
Number of perturbations                 ...      1
Perturbation type                       ... REAL

----------------------------
POPLE LINEAR EQUATION SOLVER
----------------------------

  ITERATION   0:   ||err||_max =   1.4385e-01 (   3.9 sec)
  ITERATION   1:   ||err||_max =   3.9548e-02 (   4.0 sec)
  ITERATION   2:   ||err||_max =   1.5623e-02 (   4.0 sec)
  ITERATION   3:   ||err||_max =   4.8970e-03 (   4.0 sec)
  ITERATION   4:   ||err||_max =   2.2104e-03 (   4.1 sec)
  ITERATION   5:   ||err||_max =   9.9303e-04 (   4.0 sec)
  ITERATION   6:   ||err||_max =   3.7635e-04 (   4.0 sec)
  ITERATION   7:   ||err||_max =   1.3006e-04 (   4.1 sec)
  ITERATION   8:   ||err||_max =   4.3172e-05 (   4.1 sec)
                                                 ... done
Finalizing the relaxed density                   ... done
Transforming P to the AO basis                   ... done
Storing the relaxed density                      ... done

------------------------------------
ENERGY WEIGHTED DENSITY FINALIZATION
------------------------------------

Gathering the parts of the W-matrix              ...                                                      done
Forming the Z-density                            ... done
Transforming Z to the AO basis                   ... done
Calculating G(Z)                                 ... done
Finalizing the W-matrix                          ...                                                      done
Transforming W to the AO basis and storing       ... done

                *********************************************
                * UNRELAXED MP2 DENSITY POPULATION ANALYSIS *
                *********************************************

------------------------------------------------------------------------------
                           ORCA POPULATION ANALYSIS
------------------------------------------------------------------------------
Input electron density              ... 5.pmp2ur
BaseName (.gbw .S,...)              ... 5

                    ********************************
                    * MULLIKEN POPULATION ANALYSIS *
                    ********************************

-----------------------
MULLIKEN ATOMIC CHARGES
-----------------------
   0 C :   -0.155690
   1 C :   -0.141614
   2 C :   -0.149467
   3 H :    0.154695
   4 H :    0.152424
   5 C :   -0.174038
   6 C :   -0.261957
   7 H :    0.154708
   8 C :   -0.018305
   9 H :    0.153157
  10 C :   -0.141961
  11 H :    0.152121
  12 C :   -0.008982
  13 H :    0.147469
  14 H :    0.145059
  15 C :    0.778050
  16 H :    0.368892
  17 N :   -0.693588
  18 O :   -0.625310
  19 H :    0.285517
  20 O :   -0.565200
  21 H :    0.164099
  22 H :    0.279921
Sum of atomic charges:   -0.0000000

--------------------------------
MULLIKEN REDUCED ORBITAL CHARGES
--------------------------------
  0 C s       :     3.145446  s :     3.145446
      pz      :     0.945452  p :     2.948875
      px      :     1.016394
      py      :     0.987029
      dz2     :     0.015099  d :     0.061370
      dxz     :     0.018967
      dyz     :     0.009911
      dx2y2   :     0.009685
      dxy     :     0.007707
  1 C s       :     3.144448  s :     3.144448
      pz      :     1.052312  p :     2.935397
      px      :     0.910657
      py      :     0.972428
      dz2     :     0.016149  d :     0.061768
      dxz     :     0.016975
      dyz     :     0.006642
      dx2y2   :     0.010373
      dxy     :     0.011629
  2 C s       :     3.135496  s :     3.135496
      pz      :     1.056764  p :     2.952630
      px      :     0.900886
      py      :     0.994979
      dz2     :     0.016150  d :     0.061341
      dxz     :     0.016858
      dyz     :     0.006620
      dx2y2   :     0.010419
      dxy     :     0.011294
  3 H s       :     0.828967  s :     0.828967
      pz      :     0.004420  p :     0.016337
      px      :     0.008371
      py      :     0.003546
  4 H s       :     0.831138  s :     0.831138
      pz      :     0.010361  p :     0.016438
      px      :     0.002477
      py      :     0.003600
  5 C s       :     3.146958  s :     3.146958
      pz      :     0.935005  p :     2.965583
      px      :     1.023908
      py      :     1.006670
      dz2     :     0.015173  d :     0.061498
      dxz     :     0.018803
      dyz     :     0.010133
      dx2y2   :     0.009439
      dxy     :     0.007951
  6 C s       :     3.230562  s :     3.230562
      pz      :     1.066297  p :     2.966980
      px      :     0.967349
      py      :     0.933334
      dz2     :     0.012139  d :     0.064415
      dxz     :     0.013955
      dyz     :     0.011892
      dx2y2   :     0.013381
      dxy     :     0.013048
  7 H s       :     0.828958  s :     0.828958
      pz      :     0.010376  p :     0.016335
      px      :     0.002468
      py      :     0.003491
  8 C s       :     3.128912  s :     3.128912
      pz      :     0.926116  p :     2.819854
      px      :     0.940241
      py      :     0.953497
      dz2     :     0.017086  d :     0.069539
      dxz     :     0.020109
      dyz     :     0.011217
      dx2y2   :     0.010816
      dxy     :     0.010311
  9 H s       :     0.830464  s :     0.830464
      pz      :     0.004484  p :     0.016379
      px      :     0.008470
      py      :     0.003424
 10 C s       :     3.145105  s :     3.145105
      pz      :     0.945580  p :     2.935054
      px      :     1.016961
      py      :     0.972514
      dz2     :     0.015098  d :     0.061801
      dxz     :     0.018993
      dyz     :     0.010299
      dx2y2   :     0.009343
      dxy     :     0.008069
 11 H s       :     0.831461  s :     0.831461
      pz      :     0.004411  p :     0.016419
      px      :     0.008262
      py      :     0.003746
 12 C s       :     3.192540  s :     3.192540
      pz      :     0.863191  p :     2.729911
      px      :     0.956854
      py      :     0.909866
      dz2     :     0.016515  d :     0.086530
      dxz     :     0.020674
      dyz     :     0.018991
      dx2y2   :     0.017632
      dxy     :     0.012718
 13 H s       :     0.837207  s :     0.837207
      pz      :     0.008521  p :     0.015324
      px      :     0.002739
      py      :     0.004064
 14 H s       :     0.839762  s :     0.839762
      pz      :     0.004367  p :     0.015179
      px      :     0.006272
      py      :     0.004539
 15 C s       :     2.942918  s :     2.942918
      pz      :     0.648696  p :     2.120883
      px      :     0.831834
      py      :     0.640353
      dz2     :     0.045729  d :     0.158149
      dxz     :     0.046661
      dyz     :     0.021579
      dx2y2   :     0.020508
      dxy     :     0.023673
 16 H s       :     0.588505  s :     0.588505
      pz      :     0.011684  p :     0.042603
      px      :     0.021356
      py      :     0.009562
 17 N s       :     3.597744  s :     3.597744
      pz      :     1.123432  p :     4.040126
      px      :     1.197018
      py      :     1.719677
      dz2     :     0.007801  d :     0.055718
      dxz     :     0.015410
      dyz     :     0.013868
      dx2y2   :     0.008356
      dxy     :     0.010282
 18 O s       :     3.834696  s :     3.834696
      pz      :     1.323638  p :     4.742085
      px      :     1.585493
      py      :     1.832954
      dz2     :     0.012715  d :     0.048529
      dxz     :     0.012091
      dyz     :     0.008455
      dx2y2   :     0.009068
      dxy     :     0.006199
 19 H s       :     0.685961  s :     0.685961
      pz      :     0.006100  p :     0.028522
      px      :     0.014090
      py      :     0.008333
 20 O s       :     3.870828  s :     3.870828
      pz      :     1.752704  p :     4.639858
      px      :     1.424172
      py      :     1.462982
      dz2     :     0.008244  d :     0.054514
      dxz     :     0.013037
      dyz     :     0.006593
      dx2y2   :     0.011166
      dxy     :     0.015474
 21 H s       :     0.821185  s :     0.821185
      pz      :     0.004267  p :     0.014716
      px      :     0.006037
      py      :     0.004412
 22 H s       :     0.691407  s :     0.691407
      pz      :     0.009429  p :     0.028672
      px      :     0.011138
      py      :     0.008104


                     *******************************
                     * LOEWDIN POPULATION ANALYSIS *
                     *******************************

----------------------
LOEWDIN ATOMIC CHARGES
----------------------
   0 C :   -0.079054
   1 C :   -0.068940
   2 C :   -0.079310
   3 H :    0.077880
   4 H :    0.075429
   5 C :   -0.089002
   6 C :   -0.109608
   7 H :    0.077786
   8 C :   -0.024632
   9 H :    0.077113
  10 C :   -0.066172
  11 H :    0.074404
  12 C :   -0.017792
  13 H :    0.076026
  14 H :    0.074298
  15 C :    0.223271
  16 H :    0.199497
  17 N :   -0.278263
  18 O :   -0.197912
  19 H :    0.134951
  20 O :   -0.288369
  21 H :    0.078746
  22 H :    0.129655

-------------------------------
LOEWDIN REDUCED ORBITAL CHARGES
-------------------------------
  0 C s       :     2.886035  s :     2.886035
      pz      :     1.051256  p :     3.079395
      px      :     1.051285
      py      :     0.976854
      dz2     :     0.031379  d :     0.113624
      dxz     :     0.038714
      dyz     :     0.016269
      dx2y2   :     0.016151
      dxy     :     0.011111
  1 C s       :     2.886821  s :     2.886821
      pz      :     1.051070  p :     3.067695
      px      :     1.055184
      py      :     0.961441
      dz2     :     0.029784  d :     0.114425
      dxz     :     0.035408
      dyz     :     0.008569
      dx2y2   :     0.020634
      dxy     :     0.020030
  2 C s       :     2.883868  s :     2.883868
      pz      :     1.048882  p :     3.081183
      px      :     1.046176
      py      :     0.986125
      dz2     :     0.030194  d :     0.114259
      dxz     :     0.035254
      dyz     :     0.008608
      dx2y2   :     0.021010
      dxy     :     0.019193
  3 H s       :     0.876138  s :     0.876138
      pz      :     0.012629  p :     0.045982
      px      :     0.024111
      py      :     0.009243
  4 H s       :     0.878276  s :     0.878276
      pz      :     0.029883  p :     0.046294
      px      :     0.006962
      py      :     0.009450
  5 C s       :     2.885970  s :     2.885970
      pz      :     1.043624  p :     3.088564
      px      :     1.051880
      py      :     0.993060
      dz2     :     0.031546  d :     0.114469
      dxz     :     0.039025
      dyz     :     0.016611
      dx2y2   :     0.015856
      dxy     :     0.011431
  6 C s       :     2.890677  s :     2.890677
      pz      :     1.062086  p :     3.108173
      px      :     1.027820
      py      :     1.018267
      dz2     :     0.020044  d :     0.110758
      dxz     :     0.024428
      dyz     :     0.019174
      dx2y2   :     0.024381
      dxy     :     0.022730
  7 H s       :     0.876199  s :     0.876199
      pz      :     0.029955  p :     0.046015
      px      :     0.006952
      py      :     0.009109
  8 C s       :     2.866079  s :     2.866079
      pz      :     1.052873  p :     3.025314
      px      :     1.032577
      py      :     0.939864
      dz2     :     0.035397  d :     0.133239
      dxz     :     0.042766
      dyz     :     0.018708
      dx2y2   :     0.019527
      dxy     :     0.016841
  9 H s       :     0.876725  s :     0.876725
      pz      :     0.012827  p :     0.046162
      px      :     0.024406
      py      :     0.008928
 10 C s       :     2.886529  s :     2.886529
      pz      :     1.053592  p :     3.065206
      px      :     1.052513
      py      :     0.959101
      dz2     :     0.031315  d :     0.114437
      dxz     :     0.038840
      dyz     :     0.016920
      dx2y2   :     0.015671
      dxy     :     0.011691
 11 H s       :     0.879243  s :     0.879243
      pz      :     0.012652  p :     0.046353
      px      :     0.023825
      py      :     0.009877
 12 C s       :     2.872176  s :     2.872176
      pz      :     0.964883  p :     2.986145
      px      :     1.013907
      py      :     1.007355
      dz2     :     0.031088  d :     0.159472
      dxz     :     0.038566
      dyz     :     0.034776
      dx2y2   :     0.033202
      dxy     :     0.021839
 13 H s       :     0.878632  s :     0.878632
      pz      :     0.025060  p :     0.045342
      px      :     0.007986
      py      :     0.012296
 14 H s       :     0.880703  s :     0.880703
      pz      :     0.013059  p :     0.044999
      px      :     0.018154
      py      :     0.013785
 15 C s       :     2.840196  s :     2.840196
      pz      :     0.889389  p :     2.606198
      px      :     1.042446
      py      :     0.674363
      dz2     :     0.099951  d :     0.330335
      dxz     :     0.103003
      dyz     :     0.041774
      dx2y2   :     0.042989
      dxy     :     0.042617
 16 H s       :     0.677968  s :     0.677968
      pz      :     0.032281  p :     0.122535
      px      :     0.061981
      py      :     0.028273
 17 N s       :     3.175543  s :     3.175543
      pz      :     1.152933  p :     4.018066
      px      :     1.175463
      py      :     1.689670
      dz2     :     0.013919  d :     0.084654
      dxz     :     0.026595
      dyz     :     0.020368
      dx2y2   :     0.012243
      dxy     :     0.011529
 18 O s       :     3.455783  s :     3.455783
[...]
      pz      :     1.048072  p :     3.070306
      px      :     1.050439
      py      :     0.971795
      dz2     :     0.027866  d :     0.106377
      dxz     :     0.032507
      dyz     :     0.008040
      dx2y2   :     0.019350
      dxy     :     0.018614
  2 C s       :     2.895816  s :     2.895816
      pz      :     1.046974  p :     3.070208
      px      :     1.044150
      py      :     0.979085
      dz2     :     0.028396  d :     0.106489
      dxz     :     0.032106
      dyz     :     0.008001
      dx2y2   :     0.019672
      dxy     :     0.018314
  3 H s       :     0.878617  s :     0.878617
      pz      :     0.012419  p :     0.045131
      px      :     0.023314
      py      :     0.009398
  4 H s       :     0.880101  s :     0.880101
      pz      :     0.028703  p :     0.045294
      px      :     0.007280
      py      :     0.009312
  5 C s       :     2.897840  s :     2.897840
      pz      :     1.041286  p :     3.078197
      px      :     1.049724
      py      :     0.987187
      dz2     :     0.029246  d :     0.106733
      dxz     :     0.036180
      dyz     :     0.015677
      dx2y2   :     0.014653
      dxy     :     0.010977
  6 C s       :     2.895627  s :     2.895627
      pz      :     1.068684  p :     3.125353
      px      :     1.032479
      py      :     1.024190
      dz2     :     0.018465  d :     0.104814
      dxz     :     0.022416
      dyz     :     0.019044
      dx2y2   :     0.022377
      dxy     :     0.022512
  7 H s       :     0.878694  s :     0.878694
      pz      :     0.028636  p :     0.045172
      px      :     0.007253
      py      :     0.009284
  8 C s       :     2.875622  s :     2.875622
      pz      :     1.045862  p :     3.024835
      px      :     1.025406
      py      :     0.953568
      dz2     :     0.033225  d :     0.124738
      dxz     :     0.039844
      dyz     :     0.017434
      dx2y2   :     0.018233
      dxy     :     0.016002
  9 H s       :     0.878730  s :     0.878730
      pz      :     0.012869  p :     0.045210
      px      :     0.023554
      py      :     0.008787
 10 C s       :     2.896277  s :     2.896277
      pz      :     1.049235  p :     3.068045
      px      :     1.049338
      py      :     0.969472
      dz2     :     0.029097  d :     0.106456
      dxz     :     0.036211
      dyz     :     0.015734
      dx2y2   :     0.014548
      dxy     :     0.010867
 11 H s       :     0.881653  s :     0.881653
      pz      :     0.012358  p :     0.045425
      px      :     0.023220
      py      :     0.009847
 12 C s       :     2.875148  s :     2.875148
      pz      :     0.973129  p :     3.009816
      px      :     1.028916
      py      :     1.007770
      dz2     :     0.029204  d :     0.152161
      dxz     :     0.035380
      dyz     :     0.033709
      dx2y2   :     0.031756
      dxy     :     0.022113
 13 H s       :     0.874779  s :     0.874779
      pz      :     0.024285  p :     0.045088
      px      :     0.008238
      py      :     0.012564
 14 H s       :     0.880878  s :     0.880878
      pz      :     0.012897  p :     0.044592
      px      :     0.017971
      py      :     0.013724
 15 C s       :     2.851437  s :     2.851437
      pz      :     0.889235  p :     2.679023
      px      :     1.026487
      py      :     0.763300
      dz2     :     0.094926  d :     0.306415
      dxz     :     0.096312
      dyz     :     0.038053
      dx2y2   :     0.040943
      dxy     :     0.036181
 16 H s       :     0.690740  s :     0.690740
      pz      :     0.027984  p :     0.120215
      px      :     0.064004
      py      :     0.028226
 17 N s       :     3.189239  s :     3.189239
      pz      :     1.152897  p :     3.992743
      px      :     1.178855
      py      :     1.660991
      dz2     :     0.012754  d :     0.082674
      dxz     :     0.026065
      dyz     :     0.019918
      dx2y2   :     0.011828
      dxy     :     0.012108
 18 O s       :     3.480877  s :     3.480877
      pz      :     1.354374  p :     4.620516
      px      :     1.518367
      py      :     1.747775
      dz2     :     0.023718  d :     0.072197
      dxz     :     0.019438
      dyz     :     0.011511
      dx2y2   :     0.011680
      dxy     :     0.005849
 19 H s       :     0.783666  s :     0.783666
      pz      :     0.018986  p :     0.085875
      px      :     0.038907
      py      :     0.027982
 20 O s       :     3.560339  s :     3.560339
      pz      :     1.696879  p :     4.584232
      px      :     1.499475
      py      :     1.387878
      dz2     :     0.012459  d :     0.078948
      dxz     :     0.022142
      dyz     :     0.007112
      dx2y2   :     0.020716
      dxy     :     0.016519
 21 H s       :     0.874969  s :     0.874969
      pz      :     0.013522  p :     0.044737
      px      :     0.018147
      py      :     0.013068
 22 H s       :     0.787292  s :     0.787292
      pz      :     0.027147  p :     0.085668
      px      :     0.033626
      py      :     0.024895


                      *****************************
                      * MAYER POPULATION ANALYSIS *
                      *****************************

  NA   - Mulliken gross atomic population
  ZA   - Total nuclear charge
  QA   - Mulliken gross atomic charge
  VA   - Mayer's total valence
  BVA  - Mayer's bonded valence
  FA   - Mayer's free valence

  ATOM       NA         ZA         QA         VA         BVA        FA
  0 C      6.1194     6.0000    -0.1194     4.0218     3.6967     0.3251
  1 C      6.1206     6.0000    -0.1206     4.0184     3.6936     0.3248
  2 C      6.1238     6.0000    -0.1238     4.0154     3.6840     0.3315
  3 H      0.8749     1.0000     0.1251     0.9645     0.9183     0.0462
  4 H      0.8775     1.0000     0.1225     0.9659     0.9186     0.0473
  5 C      6.1438     6.0000    -0.1438     4.0289     3.6969     0.3321
  6 C      6.2723     6.0000    -0.2723     3.9233     3.6480     0.2753
  7 H      0.8750     1.0000     0.1250     0.9645     0.9182     0.0463
  8 C      5.9666     6.0000     0.0334     4.0073     3.6658     0.3415
  9 H      0.8753     1.0000     0.1247     0.9648     0.9185     0.0463
 10 C      6.1207     6.0000    -0.1207     4.0222     3.6980     0.3242
 11 H      0.8796     1.0000     0.1204     0.9683     0.9209     0.0474
 12 C      6.0321     6.0000    -0.0321     3.8882     3.6111     0.2771
 13 H      0.8641     1.0000     0.1359     0.9601     0.9107     0.0493
 14 H      0.8739     1.0000     0.1261     0.9644     0.9148     0.0495
 15 C      5.4028     6.0000     0.5972     3.9477     3.6720     0.2757
 16 H      0.6574     1.0000     0.3426     0.9017     0.8579     0.0438
 17 N      7.6205     7.0000    -0.6205     3.0141     2.6912     0.3230
 18 O      8.5276     8.0000    -0.5276     2.2115     1.8596     0.3520
 19 H      0.7365     1.0000     0.2635     0.9275     0.8817     0.0458
 20 O      8.4404     8.0000    -0.4404     2.3207     1.9310     0.3897
 21 H      0.8535     1.0000     0.1465     0.9543     0.9062     0.0481
 22 H      0.7415     1.0000     0.2585     0.9312     0.8838     0.0473

  Mayer bond orders larger than 0.100000
B(  0-C ,  1-C ) :   1.3598 B(  0-C ,  9-H ) :   0.9170 B(  0-C , 10-C ) :   1.3464 
B(  1-C ,  5-C ) :   1.3408 B(  1-C ,  7-H ) :   0.9159 B(  2-C ,  4-H ) :   0.9118 
B(  2-C ,  8-C ) :   1.3307 B(  2-C , 10-C ) :   1.3580 B(  3-H , 10-C ) :   0.9160 
B(  5-C ,  8-C ) :   1.3374 B(  5-C , 11-H ) :   0.9119 B(  6-C ,  8-C ) :   0.9400 
B(  6-C , 12-C ) :   0.8756 B(  6-C , 13-H ) :   0.9085 B(  6-C , 14-H ) :   0.9177 
B( 12-C , 15-C ) :   0.8805 B( 12-C , 17-N ) :   0.9719 B( 12-C , 21-H ) :   0.9050 
B( 15-C , 18-O ) :   0.9968 B( 15-C , 20-O ) :   1.8023 B( 16-H , 18-O ) :   0.8129 
B( 17-N , 19-H ) :   0.8559 B( 17-N , 22-H ) :   0.8606 


----------------------------------
MP2 DERIVATIVE INTEGRAL GENERATION
----------------------------------

Input SCF Electron Density              ... 5.scfp
Input Correlated Electron Density       ... 5.pmp2re
Input Energy Weighted Density           ... 5.wmp2.tmp
Input Wavefunction Amplitudes           ... 5.mp2tsaa.tmp

Nuclear repulsion gradient              ... done (  0.0 sec)
HCore & Overlap gradient  (SHARK)       ... done (  0.2 sec)
Analytic two-electron gradient terms    ... 
  Batch handling in the gradient evaluation:
  General contraction                   ... not used
  Memory available                      ... 4078.1 MB
  Memory per occupied orbital in Q2     ...   12.1 MB
  Memory per occupied orbital in Q3     ...    0.0 MB
  Total memory requirement per |i>      ...   12.2 MB
  Number of orbitals treated per batch  ...     32
  Number of batches to be done          ...      1
done ( 39.1 sec)

---------------------------------------
MP2 TOTAL ENERGY:     -553.144774157 Eh
---------------------------------------

The final MP2 gradient
  0:  -0.00000200   0.00000909  -0.00000073
  1:  -0.00000013  -0.00000723  -0.00000141
  2:   0.00000583   0.00000054   0.00000790
  3:   0.00000117   0.00000275  -0.00000006
  4:   0.00000011   0.00000037  -0.00000119
  5:   0.00000221   0.00000234  -0.00000975
  6:   0.00002653   0.00001049  -0.00000787
  7:   0.00000065   0.00000325   0.00000011
  8:  -0.00001267   0.00000328  -0.00000376
  9:  -0.00000008  -0.00000454   0.00000075
 10:  -0.00000667  -0.00000604  -0.00000186
 11:   0.00000159  -0.00000093   0.00000391
 12:  -0.00000488  -0.00002088   0.00003947
 13:   0.00000386   0.00000197   0.00000229
 14:  -0.00000790  -0.00001033   0.00000439
 15:  -0.00005057  -0.00000115  -0.00003095
 16:   0.00001838   0.00000350  -0.00001870
 17:   0.00000208   0.00002872  -0.00002123
 18:  -0.00001836  -0.00000507   0.00003238
 19:   0.00000538  -0.00000071   0.00000543
 20:   0.00003762  -0.00000441   0.00000645
 21:   0.00000384   0.00000516  -0.00000683
 22:  -0.00000599  -0.00001018   0.00000128

-----------------------------------
NORM OF THE MP2 GRADIENT:  0.000112
-----------------------------------

Maximum memory used throughout the entire MP2-calculation: 1448.3 MB

-------------------------   --------------------
FINAL SINGLE POINT ENERGY      -553.144774156675
-------------------------   --------------------

                                *** OPTIMIZATION RUN DONE ***


------------------------------------------------------------------------------
                              ORCA PROPERTY CALCULATIONS
------------------------------------------------------------------------------

GBWName                                 ... 5.gbw
Number of atoms                         ...     23
Number of basis functions               ...    223
Max core memory                         ...   4096 MB

Electric properties:
Dipole moment                           ... YES
Quadrupole moment                       ...  NO
Static polarizability (Dipole/Dipole)   ...  NO
Static polarizability (Dipole/Quad.)    ...  NO
Static polarizability (Quad./Quad.)     ...  NO
Static polarizability (Velocity)        ...  NO
Static hyperpolarizability              ...  NO

Atomic electric properties:
Dipole moment                           ...  NO
Quadrupole moment                       ...  NO
Static polarizability                   ...  NO

Choice of electric origin               ... Center of mass
Position of electric origin             ...    -6.177457     3.094352     0.661073

General magnetic properties:
Magnetizability                         ...  NO

EPR properties:
g-Tensor (aka g-matrix)                 ...  NO
Zero-Field splitting spin-orbit         ...  NO
Zero-field splitting spin-spin          ...  NO
Hyperfine couplings                     ...  NO (   0 nuclei)
Quadrupole couplings                    ...  NO (   0 nuclei)
Contact density                         ...  NO (   0 nuclei)

NMR properties:
Chemical shifts                         ...  NO (   0 nuclei)
Spin-rotation constants                 ...  NO (   0 nuclei)
Spin-spin couplings                     ...  NO (   0 nuclei,    0 pairs)

Choice of magnetic origin               ... GIAO
Position of magnetic origin             ...     0.000000     0.000000     0.000000

Properties with geometric perturbations:
SCF Hessian                             ...  NO
IR spectrum                             ...  NO
VCD spectrum                            ...  NO
X-ray spectroscopy properties:
SCF XES/XAS/RIXS spectra                ...  NO

SCF SOC stabilization energy            ...  NO
Diagonal Born-Oppenheimer correction    ...  NO

-------------
DIPOLE MOMENT
-------------

Method             : SCF
Type of density    : Electron Density
Multiplicity       :   1
Irrep              :   0
Energy             :  -551.4314765835459866 Eh
Basis              : AO
                                X                 Y                 Z
Electronic contribution:      3.652768354       0.696891359       3.041621202
Nuclear contribution   :     -4.446635262      -1.344567360      -2.928168506
                        -----------------------------------------
Total Dipole Moment    :     -0.793866908      -0.647676001       0.113452696
                        -----------------------------------------
Magnitude (a.u.)       :      1.030815398
Magnitude (Debye)      :      2.620124517



--------------------
Rotational spectrum 
--------------------
 
Rotational constants in cm-1:             0.080676             0.015552             0.014166 
Rotational constants in MHz :          2418.604793           466.227754           424.681508 

Dipole components along the rotational axes: 
x,y,z [a.u.] :     0.772828     0.535135     0.423022 
x,y,z [Debye]:     1.964372     1.360206     1.075238 

 

-------------
DIPOLE MOMENT
-------------

Method             : MP2
Type of density    : Electron Density
Multiplicity       :   1
Level              : Unrelaxed density
Irrep              :   0
Energy             :     0.0000000000000000 Eh
Basis              : AO
                                X                 Y                 Z
Electronic contribution:      3.688683854       0.700617809       3.034027332
Nuclear contribution   :     -4.446635262      -1.344567360      -2.928168506
                        -----------------------------------------
Total Dipole Moment    :     -0.757951408      -0.643949551       0.105858826
                        -----------------------------------------
Magnitude (a.u.)       :      1.000183709
Magnitude (Debye)      :      2.542264952



--------------------
Rotational spectrum 
--------------------
 
Rotational constants in cm-1:             0.080676             0.015552             0.014166 
Rotational constants in MHz :          2418.604793           466.227754           424.681508 

Dipole components along the rotational axes: 
x,y,z [a.u.] :     0.745297     0.511181     0.428478 
x,y,z [Debye]:     1.894396     1.299319     1.089104 

 

-------------
DIPOLE MOMENT
-------------

Method             : MP2
Type of density    : Electron Density
Multiplicity       :   1
Level              : Relaxed density
Irrep              :   0
Energy             :     0.0000000000000000 Eh
Basis              : AO
                                X                 Y                 Z
Electronic contribution:      3.863918315       0.734337904       3.049332660
Nuclear contribution   :     -4.446635262      -1.344567360      -2.928168506
                        -----------------------------------------
Total Dipole Moment    :     -0.582716947      -0.610229457       0.121164154
                        -----------------------------------------
Magnitude (a.u.)       :      0.852419956
Magnitude (Debye)      :      2.166679340



--------------------
Rotational spectrum 
--------------------
 
Rotational constants in cm-1:             0.080676             0.015552             0.014166 
Rotational constants in MHz :          2418.604793           466.227754           424.681508 

Dipole components along the rotational axes: 
x,y,z [a.u.] :     0.582055     0.438738     0.441974 
x,y,z [Debye]:     1.479465     1.115183     1.123410 

 

Dipole moment calculation done in   0.0 sec 

Maximum memory used throughout the entire PROP-calculation: 12.6 MB

--------------------------------
SUGGESTED CITATIONS FOR THIS RUN
--------------------------------

Below you find a list of papers that are relevant to this ORCA run
We neither can nor want to force you to cite these papers, but we appreciate if you do
You receive ORCA, which is the product of decades of hard work by many enthusiastic individuals, for free
The only thing we kindly ask in return is that you cite our papers,
We deeply appreciate it, if you show your appreciation for ORCA by not just citing the generic ORCA reference.

Please note that relegating all ORCA citations to the supporting information does *not* help us.
SI sections are not indexed - citations you put there will not count into any citation statistics
But we need these citations in order to attract the funding resources that allow us to do what we are doing

Therefore, if you are a happy ORCA user, please consider citing a few of the papers listed below in the main body of your paper

In addition to the list printed below, the program has created the file 5.bibtex that contains the list in bibtex format
You can import this file easily into all common literature databanks and citation aid programs


List of essential papers. We consider these as the minimum necessary citations

  1. Neese, F.
     Software update: the ORCA program system, version 6.0
     WIRES Comput. Molec. Sci. 2025 15(1), e70019
     doi.org/10.1002/wcms.7019

List of papers to cite with high priority. The work reported in these papers was absolutely
necessary for this run to complete.
Our perspective: the developers of density functionals and basis sets usually get cited in chemistry papers
Good! But without the algorithms to do something with them, the functionals or basis sets would not do anything.
Hence, in our opinion, the algorithm design and method developments papers are equally worthy of getting cited

  1. Neese, F.
     The SHARK Integral Generation and Digestion System
     J. Comp. Chem. 2022 44(3), 381
     doi.org/10.1002/jcc.26942

List of suggested additional citations. These are papers that are important in the 'surrounding' of 
of this run, or papers that preceded the highly important papers. If you like your results we are grateful for a citation.

  1. Neese, F.
     The ORCA program system
     WIRES Comput. Molec. Sci. 2012 2(1), 73-78
     doi.org/10.1002/wcms.81
  2. Neese, F.
     Software update: the ORCA program system, version 4.0
     WIRES Comput. Molec. Sci. 2018 8(1), 1-6
     doi.org/10.1002/wcms.1327
  3. Neese, F.; Wennmohs, F.; Becker, U.; Riplinger, C.
     The ORCA quantum chemistry program package
     J. Chem. Phys. 2020 152(22), 224108
     doi.org/10.1063/5.0004608
  4. Neese, F.
     Software update: The ORCA program system—Version 5.0
     WIRES Comput. Molec. Sci. 2022 12(1), e1606
     doi.org/10.1002/wcms.1606

List of optional additional citations

  1. Neese, F.
     Approximate second-order SCF convergence for spin unrestricted wavefunctions
     Chem. Phys. Lett. 2000 325(1-3), 93-98
     doi.org/10.1016/s0009-2614(00)00662-x

Timings for individual modules:

Sum of individual times          ...     1250.934 sec (=  20.849 min)
Startup calculation              ...        5.204 sec (=   0.087 min)   0.4 %
SCF iterations                   ...      200.735 sec (=   3.346 min)  16.0 %
Property calculations            ...        0.042 sec (=   0.001 min)   0.0 %
MP2 module                       ...     1044.936 sec (=  17.416 min)  83.5 %
Geometry relaxation              ...        0.017 sec (=   0.000 min)   0.0 %
                             ****ORCA TERMINATED NORMALLY****
TOTAL RUN TIME: 0 days 0 hours 20 minutes 51 seconds 127 msec
