
                                 *****************
                                 * O   R   C   A *
                                 *****************

                                            #,                                       
                                            ###                                      
                                            ####                                     
                                            #####                                    
                                            ######                                   
                                           ########,                                 
                                     ,,################,,,,,                         
                               ,,#################################,,                 
                          ,,##########################################,,             
                       ,#########################################, ''#####,          
                    ,#############################################,,   '####,        
                  ,##################################################,,,,####,       
                ,###########''''           ''''###############################       
              ,#####''   ,,,,##########,,,,          '''####'''          '####       
            ,##' ,,,,###########################,,,                        '##       
           ' ,,###''''                  '''############,,,                           
         ,,##''                                '''############,,,,        ,,,,,,###''
      ,#''                                            '''#######################'''  
     '                                                          ''''####''''         
             ,#######,   #######,   ,#######,      ##                                
            ,#'     '#,  ##    ##  ,#'     '#,    #''#        ,####,    ,#,          
            ##       ##  ##   ,#'  ##            #'  '#       #'       ,# #          
            ##       ##  #######   ##           ,######,      #####,      #          
            '#,     ,#'  ##    ##  '#,     ,#' ,#      #,     #,   #      #          
             '#######'   ##     ##  '#######'  #'      '#     '####' #    #          



                #########################################################
                #                        -***-                          #
                #          Department of theory and spectroscopy        #
                #                                                       #
                #                      Frank Neese                      #
                #                                                       #
                #     Directorship, Architecture, Infrastructure        #
                #                    SHARK, DRIVERS                     #
                #        Core code/Algorithms in most modules           #
                #                                                       #
                #        Max Planck Institute fuer Kohlenforschung      #
                #                Kaiser Wilhelm Platz 1                 #
                #                 D-45470 Muelheim/Ruhr                 #
                #                      Germany                          #
                #                                                       #
                #                  All rights reserved                  #
                #                        -***-                          #
                #########################################################


                         Program Version 6.1.0  -  RELEASE   -
                                (GIT: $679e74b$)
                          ($2025-06-10 18:02:51 +0200$)


 With contributions from (in alphabetic order):
[Max-Planck-Institut fuer Kohlenforschung]                               
  Daniel Aravena         : Magnetic Suceptibility                        
  Michael Atanasov       : Ab Initio Ligand Field Theory (pilot matlab implementation)
  Alexander A. Auer      : GIAO ZORA, VPT2 properties, NMR spectrum      
  Ute Becker             : All parallelization in ORCA, NUMFREQ, NUMCALC 
  Giovanni Bistoni       : ED, misc. LED, open-shell LED, HFLD           
  Dmytro Bykov           : pre 5.0 version of the SCF Hessian            
  Marcos Casanova-Páez   : Triplet and SCS-CIS(D). UHF-(DLPNO)-IP/EA/STEOM-CCSD. UHF-CVS-IP/STEOM-CCSD   
  Vijay G. Chilkuri      : MRCI spin determinant printing, contributions to CSF-ICE 
  Pauline Colinet        : FMM embedding                                 
  Dipayan Datta          : RHF DLPNO-CCSD density                        
  Achintya Kumar Dutta   : EOM-CC, STEOM-CC                              
  Nicolas Foglia         : Exact transition moments, OPA infrastructure, MCD improvements    
  Dmitry Ganyushin       : Spin-Orbit,Spin-Spin,Magnetic field MRCI      
  Miquel Garcia-Rates    : C-PCM and meta-GGA Hessian, CCSD/C-PCM, Gaussian charge scheme 
  Tiago L. C. Gouveia    : GS-ROHF, GS-ROCIS                             
  Yang Guo               : DLPNO-NEVPT2, F12-NEVPT2, CIM, IAO-localization        
  Andreas Hansen         : Spin unrestricted coupled pair/coupled cluster methods 
  Ingolf Harden          : AUTO-CI MPn and infrastructure                
  Benjamin Helmich-Paris : MC-RPA, TRAH-(SCF,CASSCF), AVAS, COSX integrals, SCF dyn. polar., MC-PDFT, srDFT 
  Lee Huntington         : MR-EOM, pCC                                   
  Robert Izsak           : Overlap fitted RIJCOSX, COSX-SCS-MP3, EOM     
  Riya Kayal             : Wick's Theorem for AUTO-CI, AUTO-CI UHF-CCSDT 
  Emily Kempfer          : AUTO-CI RHF CISDT and CCSDT, approximate NEVPT4
  Christian Kollmar      : KDIIS, OOCD, Brueckner-CCSD(T), CCSD density, CASPT2, CASPT2-K, improved NEVPT2 
  Axel Koslowski         : Symmetry handling                             
  Simone Kossmann        : meta-GGA functionals, TD-DFT gradient, OOMP2, (MP2 Hessian; deprecated post 5.0) 
  Lucas Lang             : DCDCAS, Hyperfine gauge corrections, ICE-SOC+SSC
  Marvin Lechner         : AUTO-CI (C++ implementation), FIC-MRCC        
  Spencer Leger          : CASSCF response                               
  Dagmar Lenk            : GEPOL surface, SMD, ORCA-2-JSON               
  Dimitrios Liakos       : Extrapolation schemes; Compound Job, Property file
  Dimitrios Manganas     : Further ROCIS development; embedding schemes. LFT, Crystal Embedding 
  Dimitrios Pantazis     : SARC Basis sets                               
  Anastasios Papadopoulos: AUTO-CI, single reference methods and gradients 
  Taras Petrenko         : pre 6.0 DFT Hessian and TD-DFT gradient,  ECA, NRVS 
  Petra Pikulova         : Analytic Raman intensities                    
  Peter Pinski           : DLPNO-MP2, DLPNO-MP2 Gradient                 
  Shashank Vittal Rao    : ES-AILFT, MagRelax                            
  Christoph Reimann      : Effective Core Potentials                     
  Marius Retegan         : Local ZFS, SOC                                
  Christoph Riplinger    : Optimizer, TS searches, QM/MM, DLPNO-CCSD(T), (RO)-DLPNO pert. Triples 
  Michael Roemelt        : Original ROCIS implementation, recursive CI coupling coefficients
  Masaaki Saitow         : Open-shell DLPNO-CCSD energy and density      
  Barbara Sandhoefer     : DKH picture change effects                    
  Yorick L. A. Schmerwitz: GMF and freeze-and-release deltaSCF, NEB S-IDPP initial path                    
  Kantharuban Sivalingam : CASSCF convergence/infrastructure, NEVPT2, NEVPT3, NEVPT4(SD), FIC-MRCI and CEPA variants
  Bernardo de Souza      : ESD, SOC TD-DFT                               
  Georgi L. Stoychev     : AutoAux, RI-MP2 NMR, DLPNO-MP2 response, X2C  
  Van Anh Tran           : RI-MP2 g-tensors                              
  Willem Van den Heuvel  : Paramagnetic NMR                              
  Zikuan Wang            : NOTCH, Electric field optimization            
  Frank Wennmohs         : Technical directorship and infrastructure     
  Hang Xu                : AUTO-CI-Response properties                   
                                                                         
[FACCTs GmbH]                                                            
  Markus Bursch, Nicolas Foglia, Miquel Garcia-Rates, Ingolf Harden, Hagen Neugebauer, Anastasios Papadopoulos, 
  Christoph Riplinger, Bernardo de Souza, Georgi L. Stoychev                                                    
                                                                 
  APM, various basis sets, CI-OPT, improved COSX, DLPNO-Multilevel,           
  DOCKER, DRACO, updates on ESD, Fragmentator, GOAT, IRC, LR-CPCM, L-BFGS, MBIS, meta-GGA TD-DFT gradient, ML-optimized integration grids, 
  MM, NACMEs, nearIR, NEB, NEB-TS, NL-DFT gradient (VV10), 2- and 3-layer-ONIOM, interface openCOSMO-RS, QMMM,   
  Crystal-QMMM, RESP, rigid body optimization, SF, symmetry and pop. for TD-DFT, various functionals, SOLVATOR                                   
                                                                         
[Other institutions]                                                     
  V. Asgeirsson          : NEB                                           
  Christoph Bannwarth    : sTDA-DFT, sTD-DFT, PBEh-3c, B97-3c, D3        
  Giovanni Bistoni       : ETS/NOCV, ADLD/ADEX, COVALED                  
  Martin Brehm           : Molecular dynamics                            
  Ronald Cardenas        : ETS/NOCV                                      
  Martina Colucci        : COVALED                                       
  Sebastian Ehlert       : rSCAN, r2SCAN, r2SCAN-3c, D4, dhf basis sets  
  Marvin Friede          : D4 for Fr, Ra, Ac-Lr                          
  Lars Goerigk           : TD-DFT with DH, B97 family of functionals     
  Stefan Grimme          : VdW corrections, initial TS optimization, DFT functionals, gCP, sTDA/sTD-DF 
  Waldemar Hujo          : DFT-NL                                        
  H. Jonsson             : NEB                                           
  Holger Kruse           : gCP                                           
  Marcel Mueller         : wB97X-3c, vDZP basis set                      
  Hagen Neugebauer       : wr2SCAN, Native XTB                           
  Gianluca Regni         : ADLD/ADEX                                     
  Tobias Risthaus        : pre 6.0 range-separated hybrid DFT and stability analysis
  Lukas Wittmann         : regularized MP2, r2SCAN double-hybrids, wr2SCAN        
                                                                         
We gratefully acknowledge several colleagues who have allowed us to      
interface, adapt or use parts of their codes:                            
  Ed Valeev, F. Pavosevic, A. Kumar             : LibInt (2-el integral package), F12 methods 
  Garnet Chan, S. Sharma, J. Yang, R. Olivares  : DMRG                   
  Ulf Ekstrom                                   : XCFun DFT Library      
  Mihaly Kallay                                 : mrcc  (arbitrary order and MRCC methods)
  Frank Weinhold                                : gennbo (NPA and NBO analysis)           
  Simon Mueller                                 : openCOSMO-RS                            
  Christopher J. Cramer and Donald G. Truhlar   : smd solvation model                     
  S Lehtola, MJT Oliveira, MAL Marques          : LibXC Library                           
  Liviu Ungur et al                             : ANISO software                          


 Your calculation uses the libint2 library for the computation of 2-el integrals
 For citations please refer to: http://libint.valeyev.net

 Your ORCA version has been built with support for libXC version: 7.0.0
 For citations please refer to: https://libxc.gitlab.io

 This ORCA versions uses:
   CBLAS   interface :  Fast vector & matrix operations
   LAPACKE interface :  Fast linear algebra routines
   SCALAPACK package :  Parallel linear algebra routines
   Shared memory     :  Shared parallel matrices
   BLAS/LAPACK       :  OpenBLAS 0.3.29  USE64BITINT DYNAMIC_ARCH NO_AFFINITY Haswell SINGLE_THREADED
        Core in use  :  Haswell
   Copyright (c) 2011-2014, The OpenBLAS Project


  ***********************************
  * Starting time: Sat Aug 30 16:31:11 2025
  * Host name:     chemlab03
  * Process ID:    83167
  * Working dir.:  /home/vivek/mm-project/vivek/xtb-goat/B97-D-opt/l/2
  ***********************************



***************************************
The coordinates will be read from file: /home/vivek/mm-project/vivek/xtb-goat/xtb-goat/l/L_CONF/2.xyz
***************************************


Your calculation utilizes empirical dispersion correction


Warning: RI is on but no J-basis has been assigned. Assigning Def2/J (nothing to worry about!)
================================================================================

----- Orbital basis set information -----
Your calculation utilizes the basis: 6-31G**
   H-He, Li-Ne : W. J. Hehre, R. Ditchfield and J.A. Pople, J. Chem. Phys. 56, 2257 (1972).
                 Note: He and Ne are unpublished basis sets taken from the Gaussian program.
                 Note: Li and B from J. D. Dill and J. A. Pople, J. Chem. Phys. 62, 2921 (1975).
   Na - Ar     : M. M. Francl, W. J. Pietro, W. J. Hehre, J. S. Binkley, M. S. Gordon, 
                 D. J. DeFrees and J. A. Pople, J. Chem. Phys. 77, 3654 (1982).
   K - Zn      : V. A. Rassolov, J. A. Pople, M. A. Ratner, and T. L. Windus, J. Chem. Phys. 109, 1223 (1998).

----- AuxJ basis set information -----
Your calculation utilizes the auxiliary basis: def2/J
   H-Rn: F. Weigend, Phys. Chem. Chem. Phys. 8, 1057 (2006).
   Fr-Lr: K. Eichkorn, F. Weigend, O. Treutler, R. Ahlrichs; Theor. Chem. Acc. 97, 119 (1997).

================================================================================
                                        WARNINGS
                       Please study these warnings very carefully!
================================================================================


WARNING: Geometry Optimization
  ===> : Switching off AutoStart
         For restart on a previous wavefunction, please use MOREAD

INFO   : The exchange functional is Grimme's B97(-D)
         As described in S. Grimme, J. Comput. Chem. 27, 1787 (2006).
         Note that this functional defaults to a pure GGA. 

INFO   : The correlation functional is Grimme's B97(-D)
         As described in S. Grimme, J. Comput. Chem. 27, 1787 (2006).

================================================================================
                                       INPUT FILE
================================================================================
NAME = 2.inp
|  1> ! B97-D 6-31G** opt
|  2> 
|  3> * xyzfile 0 1 /home/vivek/mm-project/vivek/xtb-goat/xtb-goat/l/L_CONF/2.xyz
|  4> 
|  5>                          ****END OF INPUT****
================================================================================

                       *****************************
                       * Geometry Optimization Run *
                       *****************************

Geometry optimization settings:
Update method            Update   .... BFGS
Choice of coordinates    CoordSys .... (2022) Redundant Internals
Initial Hessian          InHess   .... Almloef's Model
Max. no of cycles        MaxIter  .... 66

Convergence Tolerances:
Energy Change            TolE     ....  5.0000e-06 Eh
Max. Gradient            TolMAXG  ....  3.0000e-04 Eh/bohr
RMS Gradient             TolRMSG  ....  1.0000e-04 Eh/bohr
Max. Displacement        TolMAXD  ....  4.0000e-03 bohr
RMS Displacement         TolRMSD  ....  2.0000e-03 bohr
Strict Convergence                .... False

------------------------------------------------------------------------------
                        ORCA OPTIMIZATION COORDINATE SETUP
------------------------------------------------------------------------------

The optimization will be done in redundant internal coordinates (2022)
Making redundant internal coordinates   ...  (2022 redundants) done
Evaluating the initial hessian          ...  (Almloef) done
Evaluating the coordinates              ...  done
Calculating the B-matrix                .... done
Calculating the G-matrix                .... done
The number of degrees of freedom        ....   94

    -----------------------------------------------------------------
                    Redundant Internal Coordinates


    -----------------------------------------------------------------
         Definition                    Initial Value    Approx d2E/dq
    -----------------------------------------------------------------
      1. B(C   1,C   0)                  1.5225         0.384076   
      2. B(C   4,C   0)                  1.5378         0.362958   
      3. B(H   5,C   0)                  1.0928         0.356425   
      4. B(N   7,H   3)                  1.0159         0.423406   
      5. B(N   7,C   0)                  1.4528         0.444227   
      6. B(N   7,H   2)                  1.0148         0.425200   
      7. B(C   8,C   4)                  1.5316         0.371407   
      8. B(H   9,C   4)                  1.0912         0.358565   
      9. B(H  10,C   4)                  1.0929         0.356301   
     10. B(C  11,C   8)                  1.5268         0.377990   
     11. B(H  12,C  11)                  1.0877         0.363190   
     12. B(C  13,C   8)                  1.5282         0.376013   
     13. B(C  13,H   6)                  1.0876         0.363350   
     14. B(H  14,C  11)                  1.0863         0.365046   
     15. B(H  15,C  11)                  1.0877         0.363090   
     16. B(H  16,C   8)                  1.0956         0.352752   
     17. B(H  17,C  13)                  1.0874         0.363523   
     18. B(H  18,C  13)                  1.0878         0.363076   
     19. B(O  19,C   1)                  1.3383         0.676765   
     20. B(H  20,O  19)                  0.9712         0.498954   
     21. B(O  21,C   1)                  1.2034         1.110785   
     22. A(C   4,C   0,N   7)          108.3714         0.370133   
     23. A(C   1,C   0,H   5)          108.8001         0.325251   
     24. A(H   5,C   0,N   7)          108.4946         0.331151   
     25. A(C   4,C   0,H   5)          110.2253         0.322246   
     26. A(C   1,C   0,N   7)          111.7340         0.373755   
     27. A(C   1,C   0,C   4)          109.2097         0.363283   
     28. A(C   0,C   1,O  21)          124.4634         0.439396   
     29. A(C   0,C   1,O  19)          112.9046         0.402222   
     30. A(O  19,C   1,O  21)          122.6221         0.484052   
     31. A(H   9,C   4,H  10)          107.7917         0.290161   
     32. A(C   0,C   4,H  10)          107.6292         0.322228   
     33. A(C   8,C   4,H   9)          109.7349         0.323782   
     34. A(C   0,C   4,H   9)          107.0208         0.322562   
     35. A(C   0,C   4,C   8)          115.3458         0.361208   
     36. A(C   8,C   4,H  10)          109.0522         0.323446   
     37. A(C   0,N   7,H   2)          110.5704         0.338080   
     38. A(H   2,N   7,H   3)          107.2772         0.301363   
     39. A(C   0,N   7,H   3)          109.2883         0.337842   
     40. A(C  13,C   8,H  16)          108.2518         0.323568   
     41. A(C   4,C   8,H  16)          108.9235         0.322915   
     42. A(C  11,C   8,H  16)          108.5202         0.323847   
     43. A(C  11,C   8,C  13)          110.0665         0.364487   
     44. A(C   4,C   8,C  13)          109.0236         0.363394   
     45. A(C   4,C   8,C  11)          111.9754         0.363720   
     46. A(H  14,C  11,H  15)          108.8896         0.291843   
     47. A(H  12,C  11,H  15)          108.3933         0.291609   
     48. A(C   8,C  11,H  15)          110.3787         0.325387   
     49. A(H  12,C  11,H  14)          107.9783         0.291855   
     50. A(C   8,C  11,H  14)          111.0499         0.325675   
     51. A(C   8,C  11,H  12)          110.0742         0.325402   
     52. A(H   6,C  13,H  18)          108.4066         0.291627   
     53. A(C   8,C  13,H  17)          110.5293         0.325171   
     54. A(H   6,C  13,H  17)          108.3309         0.291684   
     55. A(H   6,C  13,C   8)          110.8017         0.325145   
     56. A(H  17,C  13,H  18)          108.4054         0.291649   
     57. A(C   8,C  13,H  18)          110.2906         0.325105   
     58. A(C   1,O  19,H  20)          110.6712         0.373082   
     59. D(O  19,C   1,C   0,H   5)     22.3909         0.010993   
     60. D(O  21,C   1,C   0,H   5)   -156.4886         0.010993   
     61. D(O  21,C   1,C   0,C   4)     83.1572         0.010993   
     62. D(O  19,C   1,C   0,N   7)    142.1560         0.010993   
     63. D(O  19,C   1,C   0,C   4)    -97.9633         0.010993   
     64. D(C   8,C   4,C   0,C   1)     60.4377         0.010557   
     65. D(C   8,C   4,C   0,H   5)    -59.0387         0.010557   
     66. D(H   9,C   4,C   0,H   5)     63.3565         0.010557   
     67. D(H   9,C   4,C   0,N   7)    -55.2356         0.010557   
     68. D(C   8,C   4,C   0,N   7)   -177.6308         0.010557   
     69. D(H   9,C   4,C   0,C   1)   -177.1671         0.010557   
     70. D(H   2,N   7,C   0,H   5)     57.7392         0.016830   
     71. D(H   2,N   7,C   0,C   4)    177.4223         0.016830   
     72. D(H   3,N   7,C   0,C   1)     55.6618         0.016830   
     73. D(H   2,N   7,C   0,C   1)    -62.2055         0.016830   
     74. D(H   3,N   7,C   0,C   4)    -64.7105         0.016830   
     75. D(C  13,C   8,C   4,H  10)    -56.4484         0.011022   
     76. D(C  13,C   8,C   4,H   9)     61.4125         0.011022   
     77. D(C  13,C   8,C   4,C   0)   -177.6545         0.011022   
     78. D(C  11,C   8,C   4,H  10)   -178.4875         0.011022   
     79. D(C  11,C   8,C   4,H   9)    -60.6266         0.011022   
     80. D(C  11,C   8,C   4,C   0)     60.3064         0.011022   
     81. D(H  14,C  11,C   8,H  16)     52.7283         0.011394   
     82. D(H  14,C  11,C   8,C  13)    171.0233         0.011394   
     83. D(H  14,C  11,C   8,C   4)    -67.5360         0.011394   
     84. D(H  12,C  11,C   8,H  16)    -66.7940         0.011394   
     85. D(H  12,C  11,C   8,C  13)     51.5010         0.011394   
     86. D(H  12,C  11,C   8,C   4)    172.9416         0.011394   
     87. D(H   6,C  13,C   8,H  16)    -60.7678         0.011281   
     88. D(H   6,C  13,C   8,C  11)   -179.2279         0.011281   
     89. D(H   6,C  13,C   8,C   4)     57.5864         0.011281   
     90. D(H  17,C  13,C   8,H  16)     59.3322         0.011281   
     91. D(H  17,C  13,C   8,C  11)    -59.1279         0.011281   
     92. D(H  17,C  13,C   8,C   4)    177.6864         0.011281   
     93. D(H  20,O  19,C   1,O  21)     -1.7258         0.034084   
     94. D(H  20,O  19,C   1,C   0)    179.3711         0.034084   
    -----------------------------------------------------------------

Number of atoms                         .... 22
Number of degrees of freedom            .... 94


         *************************************************************
         *                GEOMETRY OPTIMIZATION CYCLE   1            *
         *************************************************************
---------------------------------
CARTESIAN COORDINATES (ANGSTROEM)
---------------------------------
  C     -9.637146    6.580267   -2.100048
  C     -8.394936    6.785190   -1.244018
  H     -9.782802    8.492515   -2.806180
  H     -8.862134    7.506702   -3.730698
  C     -9.599680    5.172208   -2.717253
  H    -10.522195    6.692714   -1.468986
  H     -8.597121    2.678457   -3.109649
  N     -9.713594    7.550983   -3.178303
  C     -9.575354    4.016410   -1.712619
  H    -10.475986    5.082302   -3.361180
  H     -8.711671    5.112350   -3.351492
  C    -10.809471    4.014694   -0.813689
  H    -10.823225    3.116655   -0.200198
  C     -9.480278    2.695461   -2.475206
  H    -10.809707    4.874407   -0.149676
  H    -11.715896    4.033694   -1.414714
  H     -8.685120    4.113029   -1.081338
  H     -9.420254    1.858973   -1.782980
  H    -10.357441    2.558809   -3.103800
  O     -8.618653    6.571805    0.058032
  H     -7.804555    6.701512    0.571544
  O     -7.321972    7.123671   -1.670960

----------------------------
CARTESIAN COORDINATES (A.U.)
----------------------------
  NO LB      ZA    FRAG     MASS         X           Y           Z
   0 C     6.0000    0    12.011  -18.211567   12.434902   -3.968515
   1 C     6.0000    0    12.011  -15.864131   12.822150   -2.350853
   2 H     1.0000    0     1.008  -18.486816   16.048527   -5.302912
   3 H     1.0000    0     1.008  -16.747007   14.185612   -7.049997
   4 C     6.0000    0    12.011  -18.140766    9.774056   -5.134864
   5 H     1.0000    0     1.008  -19.884067   12.647397   -2.775982
   6 H     1.0000    0     1.008  -16.246204    5.061551   -5.876385
   7 N     7.0000    0    14.007  -18.356033   14.269289   -6.006122
   8 C     6.0000    0    12.011  -18.094796    7.589916   -3.236381
   9 H     1.0000    0     1.008  -19.796744    9.604160   -6.351709
  10 H     1.0000    0     1.008  -16.462672    9.660942   -6.333402
  11 C     6.0000    0    12.011  -20.426940    7.586673   -1.537649
  12 H     1.0000    0     1.008  -20.452932    5.889624   -0.378319
  13 C     6.0000    0    12.011  -17.915130    5.093683   -4.677461
  14 H     1.0000    0     1.008  -20.427385    9.211294   -0.282847
  15 H     1.0000    0     1.008  -22.139834    7.622578   -2.673422
  16 H     1.0000    0     1.008  -16.412499    7.772498   -2.043433
  17 H     1.0000    0     1.008  -17.801700    3.512950   -3.369343
  18 H     1.0000    0     1.008  -19.572728    4.835449   -5.865333
  19 O     8.0000    0    15.999  -16.286894   12.418912    0.109664
  20 H     1.0000    0     1.008  -14.748471   12.664023    1.080061
  21 O     8.0000    0    15.999  -13.836522   13.461787   -3.157658

--------------------------------
INTERNAL COORDINATES (ANGSTROEM)
--------------------------------
 C      0   0   0     0.000000000000     0.00000000     0.00000000
 C      1   0   0     1.522453919214     0.00000000     0.00000000
 H      1   2   0     2.043656370255    97.26650597     0.00000000
 H      3   1   2     1.635294141440    65.86705013    89.45388834
 C      1   2   3     1.537847710258   109.20966055   144.37349499
 H      1   2   3     1.092791981867   108.80014368   264.72772261
 H      5   1   2     2.716227526080   155.17322591     5.02722871
 N      3   1   2     1.014764877100    41.72681047   124.06597867
 C      5   1   2     1.531583922884   115.34580159    60.43773075
 H      5   1   2     1.091162647438   107.02082011   182.83294680
 H      5   1   2     1.092887076398   107.62924953   298.46455596
 C      9   5   1     1.526801945126   111.97538131    60.30639235
 H     12   9   5     1.087674475209   110.07421634   172.94162203
 C      7   5   1     1.087554504953    66.52429313   104.02217026
 H     12   9   5     1.086286541145   111.04986210   292.46395353
 H     12   9   5     1.087748965103   110.37871664    53.32930285
 H      9   5   1     1.095611997915   108.92349503   300.27738749
 H     14   7   5     1.087424471872   108.33091950   209.21480967
 H     14   7   5     1.087759317091   108.40661612    91.77552585
 O      2   1   3     1.338250943237   112.90463378   117.66319329
 H     20   2   1     0.971223436956   110.67115518   179.37108159
 O      2   1   3     1.203371068225   124.46336003   298.78368042

---------------------------
INTERNAL COORDINATES (A.U.)
---------------------------
 C      0   0   0     0.000000000000     0.00000000     0.00000000
 C      1   0   0     2.877020958830     0.00000000     0.00000000
 H      1   2   0     3.861950851626    97.26650597     0.00000000
 H      3   1   2     3.090258075727    65.86705013    89.45388834
 C      1   2   3     2.906111008066   109.20966055   144.37349499
 H      1   2   3     2.065077567073   108.80014368   264.72772261
 H      5   1   2     5.132926141709   155.17322591     5.02722871
 N      3   1   2     1.917627708042    41.72681047   124.06597867
 C      5   1   2     2.894274165368   115.34580159    60.43773075
 H      5   1   2     2.061998571222   107.02082011   182.83294680
 H      5   1   2     2.065257269695   107.62924953   298.46455596
 C      9   5   1     2.885237537026   111.97538131    60.30639235
 H     12   9   5     2.055406881002   110.07421634   172.94162203
 C      7   5   1     2.055180170073    66.52429313   104.02217026
 H     12   9   5     2.052784065730   111.04986210   292.46395353
 H     12   9   5     2.055547646501   110.37871664    53.32930285
 H      9   5   1     2.070406625098   108.92349503   300.27738749
 H     14   7   5     2.054934443162   108.33091950   209.21480967
 H     14   7   5     2.055567208924   108.40661612    91.77552585
 O      2   1   3     2.528927781180   112.90463378   117.66319329
 H     20   2   1     1.835346310693   110.67115518   179.37108159
 O      2   1   3     2.274041756430   124.46336003   298.78368042

---------------------
BASIS SET INFORMATION
---------------------
There are 4 groups of distinct atoms

 Group   1 Type C   : 10s4p1d contracted to 3s2p1d pattern {631/31/1}
 Group   2 Type H   : 4s1p contracted to 2s1p pattern {31/1}
 Group   3 Type N   : 10s4p1d contracted to 3s2p1d pattern {631/31/1}
 Group   4 Type O   : 10s4p1d contracted to 3s2p1d pattern {631/31/1}

Atom   0C    basis set group =>   1
Atom   1C    basis set group =>   1
Atom   2H    basis set group =>   2
Atom   3H    basis set group =>   2
Atom   4C    basis set group =>   1
Atom   5H    basis set group =>   2
Atom   6H    basis set group =>   2
Atom   7N    basis set group =>   3
Atom   8C    basis set group =>   1
Atom   9H    basis set group =>   2
Atom  10H    basis set group =>   2
Atom  11C    basis set group =>   1
Atom  12H    basis set group =>   2
Atom  13C    basis set group =>   1
Atom  14H    basis set group =>   2
Atom  15H    basis set group =>   2
Atom  16H    basis set group =>   2
Atom  17H    basis set group =>   2
Atom  18H    basis set group =>   2
Atom  19O    basis set group =>   4
Atom  20H    basis set group =>   2
Atom  21O    basis set group =>   4
---------------------------------
AUXILIARY/J BASIS SET INFORMATION
---------------------------------
There are 4 groups of distinct atoms

 Group   1 Type C   : 12s5p4d2f1g contracted to 6s4p3d1f1g pattern {711111/2111/211/2/1}
 Group   2 Type H   : 5s2p1d contracted to 3s1p1d pattern {311/2/1}
 Group   3 Type N   : 12s5p4d2f1g contracted to 6s4p3d1f1g pattern {711111/2111/211/2/1}
 Group   4 Type O   : 12s5p4d2f1g contracted to 6s4p3d1f1g pattern {711111/2111/211/2/1}

Atom   0C    basis set group =>   1
Atom   1C    basis set group =>   1
Atom   2H    basis set group =>   2
Atom   3H    basis set group =>   2
Atom   4C    basis set group =>   1
Atom   5H    basis set group =>   2
Atom   6H    basis set group =>   2
Atom   7N    basis set group =>   3
Atom   8C    basis set group =>   1
Atom   9H    basis set group =>   2
Atom  10H    basis set group =>   2
Atom  11C    basis set group =>   1
Atom  12H    basis set group =>   2
Atom  13C    basis set group =>   1
Atom  14H    basis set group =>   2
Atom  15H    basis set group =>   2
Atom  16H    basis set group =>   2
Atom  17H    basis set group =>   2
Atom  18H    basis set group =>   2
Atom  19O    basis set group =>   4
Atom  20H    basis set group =>   2
Atom  21O    basis set group =>   4
------------------------------------------------------------------------------
                             ORCA STARTUP CALCULATIONS
                           -- RI-GTO INTEGRALS CHOSEN --
------------------------------------------------------------------------------
------------------------------------------------------------------------------
                   ___                                                        
                  /   \      - P O W E R E D   B Y -                         
                 /     \                                                     
                 |  |  |   _    _      __       _____    __    __             
                 |  |  |  | |  | |    /  \     |  _  \  |  |  /  |          
                  \  \/   | |  | |   /    \    | | | |  |  | /  /          
                 / \  \   | |__| |  /  /\  \   | |_| |  |  |/  /          
                |  |  |   |  __  | /  /__\  \  |    /   |      \           
                |  |  |   | |  | | |   __   |  |    \   |  |\   \          
                \     /   | |  | | |  |  |  |  | |\  \  |  | \   \       
                 \___/    |_|  |_| |__|  |__|  |_| \__\ |__|  \__/        
                                                                              
                      - O R C A' S   B I G   F R I E N D -                    
                                      &                                       
                       - I N T E G R A L  F E E D E R -                       
                                                                              
 v1 FN, 2020, v2 2021, v3 2022-2024                                           
------------------------------------------------------------------------------


----------------------
SHARK INTEGRAL PACKAGE
----------------------

Number of atoms                             ...     22
Number of basis functions                   ...    191
Number of shells                            ...     93
Maximum angular momentum                    ...      2
Integral batch strategy                     ... SHARK/LIBINT Hybrid
RI-J (if used) integral strategy            ... SPLIT-RIJ (Revised 2003 algorithm where possible)
Printlevel                                  ...      1
Contraction scheme used                     ... SEGMENTED contraction
Prescreening option                         ... SCHWARTZ
   Thresh                                   ... 2.500e-11
   Tcut                                     ... 2.500e-12
   Tpresel                                  ... 2.500e-12 
Coulomb Range Separation                    ... NOT USED
Exchange Range Separation                   ... NOT USED
Multipole approximations                    ... NOT USED
Finite Nucleus Model                        ... NOT USED
CABS basis                                  ... NOT available
Auxiliary Coulomb fitting basis             ... AVAILABLE
   # of basis functions in Aux-J            ...    584
   # of shells in Aux-J                     ...    200
   Maximum angular momentum in Aux-J        ...      4
Auxiliary J/K fitting basis                 ... NOT available
Auxiliary Correlation fitting basis         ... NOT available
Auxiliary 'external' fitting basis          ... NOT available

Checking pre-screening integrals            ... done (  0.0 sec) Dimension = 93
   => SHARK Basis and OBASIS are compatible. Storing Pre-screening
Shell pair information
Shell pair cut-off parameter TPreSel        ...   2.5e-12
Total number of shell pairs                 ...      4371
Shell pairs after pre-screening             ...      3940
Total number of primitive shell pairs       ...     20328
Primitive shell pairs kept                  ...     12269
          la=0 lb=0:   1300 shell pairs
          la=1 lb=0:   1474 shell pairs
          la=1 lb=1:    442 shell pairs
          la=2 lb=0:    431 shell pairs
          la=2 lb=1:    250 shell pairs
          la=2 lb=2:     43 shell pairs

Checking whether 4 symmetric matrices of dimension 191 fit in memory
:Max Core in MB      =   4096.00
 MB in use           =      8.66
 MB left             =   4087.34
 MB needed           =      0.56
 Data fit in memory  = YES
Calculating RI/J V-Matrix + Cholesky decomp.... done (  0.0 sec)
Calculating Nuclear repulsion               ... done (  0.0 sec) ENN=    490.398721631573 Eh

Diagonalization of the overlap matrix:
Smallest eigenvalue                        ... 3.001e-03
Time for diagonalization                   ...    0.002 sec
Threshold for overlap eigenvalues          ... 1.000e-07
Number of eigenvalues below threshold      ... 0
Time for construction of square roots      ...    0.001 sec
Total time needed                          ...    0.003 sec

-------------------
DFT GRID GENERATION
-------------------

General Integration Accuracy     IntAcc      ... 4.388
Radial Grid Type                 RadialGrid  ... OptM3 with GC (2021)
Angular Grid (max. ang.)         AngularGrid ... 4 (Lebedev-302)
Angular grid pruning method      GridPruning ... 4 (adaptive)
Weight generation scheme         WeightScheme... mBecke (2022)
Basis function cutoff            BFCut       ... 1.0000e-11
Integration weight cutoff        WCut        ... 1.0000e-14
Partially contracted basis set               ... off
Rotationally invariant grid construction     ... off
Angular grids for H and He will be reduced by one unit

Total number of grid points                  ...    95566
Total number of batches                      ...     1505
Average number of points per batch           ...       63
Average number of grid points per atom       ...     4344
Grids setup in   0.4 sec
Initializing property integral containers    ... done (  0.0 sec)

SHARK setup successfully completed in   0.5 seconds

Maximum memory used throughout the entire STARTUP-calculation: 40.7 MB
-------------------------------------------------------------------------------
                                 ORCA GUESS
                   Start orbitals & Density for SCF / CASSCF
-------------------------------------------------------------------------------

------------
SCF SETTINGS
------------
Hamiltonian:
 Density Functional     Method          .... DFT(GTOs)
 Exchange Functional    Exchange        .... B97(D)
 Correlation Functional Correlation     .... B97(D)
 Gradients option       PostSCFGGA      .... off
 RI-approximation to the Coulomb term is turned on
   Number of AuxJ basis functions       .... 584


General Settings:
 Integral files         IntName         .... 2
 Hartree-Fock type      HFTyp           .... RHF
 Total Charge           Charge          ....    0
 Multiplicity           Mult            ....    1
 Number of Electrons    NEL             ....   72
 Basis Dimension        Dim             ....  191
 Nuclear Repulsion      ENuc            ....    490.3987216316 Eh

Convergence Acceleration:
 AO-DIIS                CNVDIIS         .... on
   Start iteration      DIISMaxIt       ....    12
   Startup error        DIISStart       ....  0.200000
   # of expansion vecs  DIISMaxEq       ....     5
   Bias factor          DIISBfac        ....   1.050
   Max. coefficient     DIISMaxC        ....  10.000
 MO-DIIS                CNVKDIIS        .... off
 Trust-Rad. Augm. Hess. CNVTRAH         .... auto
   Auto Start mean grad. ratio tolernc. ....  1.125000
   Auto Start start iteration           ....    50
   Auto Start num. interpolation iter.  ....    10
   Max. Number of Micro iterations      ....    24
   Max. Number of Macro iterations      .... Maxiter - #DIIS iter
   Number of Davidson start vectors     ....     2
   Converg. threshold    (grad. norm)   ....   1.000e-05
   Grad. Scal. Fac. for Micro threshold ....   0.100
   Minimum threshold for Micro iter.    ....   1.000e-02
   NR start threshold (gradient norm)   ....   1.000e-04
   Initial trust radius                 ....   0.400
   Minimum AH scaling param. (alpha)    ....   1.000
   Maximum AH scaling param. (alpha)    .... 1000.000
   Quad. conv. algorithm                .... NR
   White noise on init. David. guess    .... on
   Maximum white noise                  ....   0.010
   Pseudo random numbers                .... off
   Inactive MOs                         .... canonical
   Orbital update algorithm             .... Taylor
   Preconditioner                       .... Diag
   Full preconditioner red. dimension   ....   250
 SOSCF                 CNVSOSCF           .... on
   Start iteration     SOSCFMaxIt         ....   150
   Startup grad/error  SOSCFStart         ....  0.003300
   Hessian update      SOSCFHessUp        .... L-BFGS
   Autom. constraints  SOSCFAutoConstrain .... off
 Level Shifting         CNVShift        .... on
   Level shift para.    LevelShift      ....    0.2500
   Turn off err/grad.   ShiftErr        ....    0.0010
 Zerner damping         CNVZerner       .... off
 Static damping         CNVDamp         .... on
   Fraction old density DampFac         ....    0.7000
   Max. Damping (<1)    DampMax         ....    0.9800
   Min. Damping (>=0)   DampMin         ....    0.0000
   Turn off err/grad.   DampErr         ....    0.1000

SCF Procedure:
 Maximum # iterations   MaxIter         ....   125
 SCF integral mode      SCFMode         .... Direct
   Integral package                     .... SHARK and LIBINT hybrid scheme
 Reset frequency        DirectResetFreq ....    20
 Integral Threshold     Thresh          ....  2.500e-11 Eh
 Primitive CutOff       TCut            ....  2.500e-12 Eh

Convergence Tolerance:
 Convergence Check Mode ConvCheckMode   .... Total+1el-Energy
 Convergence forced     ConvForced      .... 0
 Energy Change          TolE            ....  1.000e-08 Eh
 1-El. energy change                    ....  1.000e-05 Eh
 Orbital Gradient       TolG            ....  1.000e-05
 Orbital Rotation angle TolX            ....  1.000e-05
 DIIS Error             TolErr          ....  5.000e-07

------------------------------
INITIAL GUESS: MODEL POTENTIAL
------------------------------
Loading Hartree-Fock densities                     ... done
Calculating cut-offs                               ... done
Initializing the effective Hamiltonian             ... done
Setting up the integral package (SHARK)            ... done
Starting the Coulomb interaction                   ... done (   0.1 sec)
Making the grid                                    ... done (   0.1 sec)
Mapping shells                                     ... done
Starting the XC term evaluation                    ... done (   0.1 sec)
  promolecular density results
     # of electrons  =     71.992307940
     EX              =    -56.843302777
     EC              =     -3.117953675
     EX+EC           =    -59.961256452
Transforming the Hamiltonian                       ... done (   0.0 sec)
Diagonalizing the Hamiltonian                      ... done (   0.0 sec)
Back transforming the eigenvectors                 ... done (   0.0 sec)
Now organizing SCF variables                       ... done
                      ------------------
                      INITIAL GUESS DONE (   0.3 sec)
                      ------------------
             **** ENERGY FILE WAS UPDATED (2.en.tmp) ****
Finished Guess after   0.3 sec
Maximum memory used throughout the entire GUESS-calculation: 13.8 MB

-------------------------------------------------------------------------------------------
                                      ORCA LEAN-SCF
                              memory conserving SCF solver
-------------------------------------------------------------------------------------------

----------------------------------------D-I-I-S--------------------------------------------
Iteration    Energy (Eh)           Delta-E    RMSDP     MaxDP     DIISErr   Damp  Time(sec)
-------------------------------------------------------------------------------------------
               ***  Starting incremental Fock matrix formation  ***
    1    -441.0188377317356299     0.00e+00  3.53e-03  1.07e-01  2.59e-01  0.700   0.6
    2    -441.1970943433677803    -1.78e-01  2.33e-03  5.69e-02  9.70e-02  0.700   0.5
                               ***Turning on AO-DIIS***
    3    -441.2531923692504279    -5.61e-02  9.04e-04  1.59e-02  2.74e-02  0.700   0.5
    4    -441.2889543469476621    -3.58e-02  1.20e-03  1.86e-02  1.22e-02  0.000   0.5
    5    -441.3715244084065716    -8.26e-02  4.06e-04  8.22e-03  1.00e-02  0.000   0.5
                              *** Initializing SOSCF ***
---------------------------------------S-O-S-C-F--------------------------------------
Iteration    Energy (Eh)           Delta-E    RMSDP     MaxDP     MaxGrad    Time(sec)
--------------------------------------------------------------------------------------
    6    -441.3724204752362539    -8.96e-04  1.46e-04  2.80e-03  3.09e-03     0.5
               *** Restarting incremental Fock matrix formation ***
    7    -441.3724858171344749    -6.53e-05  1.26e-04  4.35e-03  8.65e-04     0.6
    8    -441.3724553098712704     3.05e-05  6.86e-05  3.34e-03  2.48e-03     0.5
    9    -441.3724953616952007    -4.01e-05  4.40e-05  7.88e-04  2.38e-04     0.5
   10    -441.3724930982959904     2.26e-06  2.54e-05  4.87e-04  2.36e-04     0.5
   11    -441.3724970639601679    -3.97e-06  6.69e-06  2.20e-04  2.83e-05     0.5
   12    -441.3724969806013405     8.34e-08  3.98e-06  1.44e-04  4.85e-05     0.4
   13    -441.3724971096436320    -1.29e-07  8.05e-07  1.95e-05  3.66e-06     0.4
   14    -441.3724971080465593     1.60e-09  4.55e-07  1.20e-05  4.89e-06     0.4
                 **** Energy Check signals convergence ****

               *****************************************************
               *                     SUCCESS                       *
               *           SCF CONVERGED AFTER  14 CYCLES          *
               *****************************************************

             **** ENERGY FILE WAS UPDATED (2.en.tmp) ****

----------------
TOTAL SCF ENERGY
----------------

Total Energy       :       -441.37249711011748 Eh          -12010.35624 eV

Components:
Nuclear Repulsion  :        490.39872163157349 Eh           13344.42763 eV
Electronic Energy  :       -931.77121874169097 Eh          -25354.78387 eV
One Electron Energy:      -1572.76201466785528 Eh          -42797.03018 eV
Two Electron Energy:        640.99079592616431 Eh           17442.24630 eV

Virial components:
Potential Energy   :       -880.48032958867407 Eh          -23959.08782 eV
Kinetic Energy     :        439.10783247855653 Eh           11948.73158 eV
Virial Ratio       :          2.00515742253737

DFT components:
N(Alpha)           :       35.999888754549 electrons
N(Beta)            :       35.999888754549 electrons
N(Total)           :       71.999777509097 electrons
E(X)               :      -58.275009563540 Eh       
E(C)               :       -3.115080576891 Eh       
E(XC)              :      -61.390090140431 Eh       

---------------
SCF CONVERGENCE
---------------

  Last Energy change         ...   -1.5971e-09  Tolerance :   1.0000e-08
  Last MAX-Density change    ...    1.1951e-05  Tolerance :   1.0000e-07
  Last RMS-Density change    ...    4.5510e-07  Tolerance :   5.0000e-09
  Last DIIS Error            ...    3.0942e-03  Tolerance :   5.0000e-07
  Last Orbital Gradient      ...    4.8886e-06  Tolerance :   1.0000e-05
  Last Orbital Rotation      ...    5.6283e-06  Tolerance :   1.0000e-05


----------------
ORBITAL ENERGIES
----------------

  NO   OCC          E(Eh)            E(eV) 
   0   2.0000     -18.815283      -511.9899 
   1   2.0000     -18.752651      -510.2856 
   2   2.0000     -13.986597      -380.5947 
   3   2.0000     -10.026277      -272.8289 
   4   2.0000      -9.943880      -270.5867 
   5   2.0000      -9.908853      -269.6336 
   6   2.0000      -9.903786      -269.4957 
   7   2.0000      -9.890976      -269.1471 
   8   2.0000      -9.889460      -269.1059 
   9   2.0000      -1.020692       -27.7744 
  10   2.0000      -0.931162       -25.3382 
  11   2.0000      -0.814469       -22.1628 
  12   2.0000      -0.734317       -19.9818 
  13   2.0000      -0.661726       -18.0065 
  14   2.0000      -0.615791       -16.7565 
  15   2.0000      -0.603057       -16.4100 
  16   2.0000      -0.537525       -14.6268 
  17   2.0000      -0.498639       -13.5686 
  18   2.0000      -0.462738       -12.5917 
  19   2.0000      -0.428859       -11.6698 
  20   2.0000      -0.420949       -11.4546 
  21   2.0000      -0.408385       -11.1127 
  22   2.0000      -0.399547       -10.8722 
  23   2.0000      -0.380888       -10.3645 
  24   2.0000      -0.369528       -10.0554 
  25   2.0000      -0.354691        -9.6516 
  26   2.0000      -0.341154        -9.2833 
  27   2.0000      -0.334872        -9.1123 
  28   2.0000      -0.319250        -8.6872 
  29   2.0000      -0.311085        -8.4651 
  30   2.0000      -0.284454        -7.7404 
  31   2.0000      -0.280477        -7.6322 
  32   2.0000      -0.276720        -7.5299 
  33   2.0000      -0.270575        -7.3627 
  34   2.0000      -0.226233        -6.1561 
  35   2.0000      -0.193534        -5.2663 
  36   0.0000      -0.017533        -0.4771 
  37   0.0000       0.049887         1.3575 
  38   0.0000       0.074094         2.0162 
  39   0.0000       0.080312         2.1854 
  40   0.0000       0.100316         2.7297 
  41   0.0000       0.112809         3.0697 
  42   0.0000       0.125074         3.4034 
  43   0.0000       0.133237         3.6256 
  44   0.0000       0.150493         4.0951 
  45   0.0000       0.153060         4.1650 
  46   0.0000       0.156665         4.2631 
*Only the first 10 virtual orbitals were printed.

                    ********************************
                    * MULLIKEN POPULATION ANALYSIS *
                    ********************************

-----------------------
MULLIKEN ATOMIC CHARGES
-----------------------
   0 C :   -0.046518
   1 C :    0.495947
   2 H :    0.238921
   3 H :    0.247366
   4 C :   -0.168001
   5 H :    0.123113
   6 H :    0.104757
   7 N :   -0.557875
   8 C :   -0.080844
   9 H :    0.116286
  10 H :    0.102693
  11 C :   -0.326053
  12 H :    0.102451
  13 C :   -0.318800
  14 H :    0.118398
  15 H :    0.104008
  16 H :    0.097458
  17 H :    0.102857
  18 H :    0.105587
  19 O :   -0.454048
  20 H :    0.315049
  21 O :   -0.422752
Sum of atomic charges:    0.0000000

--------------------------------
MULLIKEN REDUCED ORBITAL CHARGES
--------------------------------
  0 C s       :     3.196177  s :     3.196177
      pz      :     0.915196  p :     2.792930
      px      :     0.957534
      py      :     0.920200
      dz2     :     0.007506  d :     0.057412
      dxz     :     0.017676
      dyz     :     0.012942
      dx2y2   :     0.012379
      dxy     :     0.006909

  1 C s       :     2.994253  s :     2.994253
      pz      :     0.733054  p :     2.385289
      px      :     0.861906
      py      :     0.790329
      dz2     :     0.035635  d :     0.124511
      dxz     :     0.036894
      dyz     :     0.018682
      dx2y2   :     0.017210
      dxy     :     0.016089

  2 H s       :     0.737173  s :     0.737173
      pz      :     0.006047  p :     0.023905
      px      :     0.007173
      py      :     0.010686

  3 H s       :     0.728728  s :     0.728728
      pz      :     0.008195  p :     0.023906
      px      :     0.011084
      py      :     0.004627

  4 C s       :     3.233688  s :     3.233688
      pz      :     0.972461  p :     2.898186
      px      :     1.045450
      py      :     0.880275
      dz2     :     0.003040  d :     0.036126
      dxz     :     0.011846
      dyz     :     0.007782
      dx2y2   :     0.010094
      dxy     :     0.003364

  5 H s       :     0.865867  s :     0.865867
      pz      :     0.003667  p :     0.011020
      px      :     0.005228
      py      :     0.002126

  6 H s       :     0.883630  s :     0.883630
      pz      :     0.003960  p :     0.011613
      px      :     0.005110
      py      :     0.002543

  7 N s       :     3.596549  s :     3.596549
      pz      :     1.297020  p :     3.932685
      px      :     1.522631
      py      :     1.113034
      dz2     :     0.004317  d :     0.028641
      dxz     :     0.006036
      dyz     :     0.007287
      dx2y2   :     0.009662
      dxy     :     0.001339

  8 C s       :     3.207253  s :     3.207253
      pz      :     0.939952  p :     2.829863
      px      :     0.971952
      py      :     0.917958
      dz2     :     0.004808  d :     0.043729
      dxz     :     0.012165
      dyz     :     0.010791
      dx2y2   :     0.010949
      dxy     :     0.005016

  9 H s       :     0.872108  s :     0.872108
      pz      :     0.004061  p :     0.011607
      px      :     0.005126
      py      :     0.002420

 10 H s       :     0.885655  s :     0.885655
      pz      :     0.003927  p :     0.011652
      px      :     0.005192
      py      :     0.002533

 11 C s       :     3.248491  s :     3.248491
      pz      :     1.014467  p :     3.047371
      px      :     0.981279
      py      :     1.051626
      dz2     :     0.001635  d :     0.030191
      dxz     :     0.008017
      dyz     :     0.010003
      dx2y2   :     0.008999
      dxy     :     0.001537

 12 H s       :     0.885914  s :     0.885914
      pz      :     0.003842  p :     0.011634
      px      :     0.002551
      py      :     0.005241

 13 C s       :     3.248788  s :     3.248788
      pz      :     1.019270  p :     3.039587
      px      :     1.041367
      py      :     0.978951
      dz2     :     0.001366  d :     0.030425
      dxz     :     0.009764
      dyz     :     0.008512
      dx2y2   :     0.008642
      dxy     :     0.002142

 14 H s       :     0.869805  s :     0.869805
      pz      :     0.004103  p :     0.011796
      px      :     0.002578
      py      :     0.005116

 15 H s       :     0.884392  s :     0.884392
      pz      :     0.003632  p :     0.011600
      px      :     0.005276
      py      :     0.002691

 16 H s       :     0.891036  s :     0.891036
      pz      :     0.003879  p :     0.011507
      px      :     0.005010
      py      :     0.002617

 17 H s       :     0.885559  s :     0.885559
      pz      :     0.004042  p :     0.011584
      px      :     0.002686
      py      :     0.004856

 18 H s       :     0.882799  s :     0.882799
      pz      :     0.003929  p :     0.011615
      px      :     0.005050
      py      :     0.002636

 19 O s       :     3.826427  s :     3.826427
      pz      :     1.293941  p :     4.604910
      px      :     1.553542
      py      :     1.757427
      dz2     :     0.005191  d :     0.022711
      dxz     :     0.007568
      dyz     :     0.003961
      dx2y2   :     0.004050
      dxy     :     0.001941

 20 H s       :     0.647128  s :     0.647128
      pz      :     0.010879  p :     0.037823
      px      :     0.017575
      py      :     0.009369

 21 O s       :     3.857794  s :     3.857794
      pz      :     1.711181  p :     4.536907
      px      :     1.409912
      py      :     1.415814
      dz2     :     0.003572  d :     0.028051
      dxz     :     0.007039
      dyz     :     0.001997
      dx2y2   :     0.007105
      dxy     :     0.008337



                     *******************************
                     * LOEWDIN POPULATION ANALYSIS *
                     *******************************

----------------------
LOEWDIN ATOMIC CHARGES
----------------------
   0 C :   -0.050147
   1 C :    0.102337
   2 H :    0.124685
   3 H :    0.127649
   4 C :   -0.110611
   5 H :    0.079244
   6 H :    0.068122
   7 N :   -0.242999
   8 C :   -0.073641
   9 H :    0.076368
  10 H :    0.070085
  11 C :   -0.200041
  12 H :    0.069225
  13 C :   -0.194775
  14 H :    0.071047
  15 H :    0.067279
  16 H :    0.064667
  17 H :    0.068082
  18 H :    0.067769
  19 O :   -0.139168
  20 H :    0.179967
  21 O :   -0.225143

-------------------------------
LOEWDIN REDUCED ORBITAL CHARGES
-------------------------------
  0 C s       :     2.880618  s :     2.880618
      pz      :     1.001792  p :     3.039466
      px      :     1.037245
      py      :     1.000429
      dz2     :     0.015210  d :     0.130063
      dxz     :     0.040966
      dyz     :     0.030686
      dx2y2   :     0.030215
      dxy     :     0.012986

  1 C s       :     2.859670  s :     2.859670
      pz      :     0.906050  p :     2.740777
      px      :     1.032962
      py      :     0.801765
      dz2     :     0.088467  d :     0.297215
      dxz     :     0.091515
      dyz     :     0.041404
      dx2y2   :     0.040744
      dxy     :     0.035085

  2 H s       :     0.796570  s :     0.796570
      pz      :     0.019177  p :     0.078745
      px      :     0.020002
      py      :     0.039567

  3 H s       :     0.792804  s :     0.792804
      pz      :     0.026828  p :     0.079547
      px      :     0.041137
      py      :     0.011582

  4 C s       :     2.906472  s :     2.906472
      pz      :     1.045610  p :     3.122906
      px      :     1.085776
      py      :     0.991520
      dz2     :     0.006413  d :     0.081233
      dxz     :     0.023565
      dyz     :     0.020752
      dx2y2   :     0.024098
      dxy     :     0.006406

  5 H s       :     0.880577  s :     0.880577
      pz      :     0.012414  p :     0.040180
      px      :     0.020713
      py      :     0.007052

  6 H s       :     0.892310  s :     0.892310
      pz      :     0.013465  p :     0.039568
      px      :     0.018931
      py      :     0.007172

  7 N s       :     3.199223  s :     3.199223
      pz      :     1.321969  p :     3.985732
      px      :     1.506946
      py      :     1.156817
      dz2     :     0.009247  d :     0.058045
      dxz     :     0.011339
      dyz     :     0.017192
      dx2y2   :     0.017844
      dxy     :     0.002422

  8 C s       :     2.878904  s :     2.878904
      pz      :     1.031917  p :     3.094459
      px      :     1.046802
      py      :     1.015740
      dz2     :     0.009437  d :     0.100278
      dxz     :     0.027576
      dyz     :     0.027267
      dx2y2   :     0.026370
      dxy     :     0.009629

  9 H s       :     0.883515  s :     0.883515
      pz      :     0.014200  p :     0.040117
      px      :     0.019093
      py      :     0.006825

 10 H s       :     0.890247  s :     0.890247
      pz      :     0.013588  p :     0.039668
      px      :     0.019090
      py      :     0.006990

 11 C s       :     2.917150  s :     2.917150
      pz      :     1.072074  p :     3.218937
      px      :     1.055303
      py      :     1.091560
      dz2     :     0.003055  d :     0.063954
      dxz     :     0.018653
      dyz     :     0.020020
      dx2y2   :     0.019216
      dxy     :     0.003009

 12 H s       :     0.891207  s :     0.891207
      pz      :     0.013001  p :     0.039568
      px      :     0.007186
      py      :     0.019381

 13 C s       :     2.918620  s :     2.918620
      pz      :     1.076587  p :     3.211809
      px      :     1.089473
      py      :     1.045749
      dz2     :     0.002692  d :     0.064346
      dxz     :     0.019516
      dyz     :     0.019132
      dx2y2   :     0.018890
      dxy     :     0.004116

 14 H s       :     0.888264  s :     0.888264
      pz      :     0.014366  p :     0.040689
      px      :     0.007299
      py      :     0.019024

 15 H s       :     0.893017  s :     0.893017
      pz      :     0.012475  p :     0.039704
      px      :     0.019943
      py      :     0.007285

 16 H s       :     0.896327  s :     0.896327
      pz      :     0.013086  p :     0.039006
      px      :     0.018559
      py      :     0.007361

 17 H s       :     0.892360  s :     0.892360
      pz      :     0.014254  p :     0.039558
      px      :     0.007218
      py      :     0.018087

 18 H s       :     0.892567  s :     0.892567
      pz      :     0.013320  p :     0.039664
      px      :     0.018838
      py      :     0.007506

 19 O s       :     3.472681  s :     3.472681
      pz      :     1.336511  p :     4.615321
      px      :     1.555112
      py      :     1.723698
      dz2     :     0.017241  d :     0.051167
      dxz     :     0.018056
      dyz     :     0.008120
      dx2y2   :     0.005976
      dxy     :     0.001774

 20 H s       :     0.704458  s :     0.704458
      pz      :     0.031943  p :     0.115575
      px      :     0.056950
      py      :     0.026682

 21 O s       :     3.554293  s :     3.554293
      pz      :     1.703737  p :     4.612869
      px      :     1.497336
      py      :     1.411796
      dz2     :     0.008135  d :     0.057981
      dxz     :     0.015805
      dyz     :     0.003530
      dx2y2   :     0.016101
      dxy     :     0.014410



                      *****************************
                      * MAYER POPULATION ANALYSIS *
                      *****************************

  NA   - Mulliken gross atomic population
  ZA   - Total nuclear charge
  QA   - Mulliken gross atomic charge
  VA   - Mayer's total valence
  BVA  - Mayer's bonded valence
  FA   - Mayer's free valence

  ATOM       NA         ZA         QA         VA         BVA        FA
  0 C      6.0465     6.0000    -0.0465     3.8644     3.8644    -0.0000
  1 C      5.5041     6.0000     0.4959     3.9372     3.9372     0.0000
  2 H      0.7611     1.0000     0.2389     0.9206     0.9206     0.0000
  3 H      0.7526     1.0000     0.2474     0.9305     0.9305    -0.0000
  4 C      6.1680     6.0000    -0.1680     3.8662     3.8662    -0.0000
  5 H      0.8769     1.0000     0.1231     0.9533     0.9533    -0.0000
  6 H      0.8952     1.0000     0.1048     0.9568     0.9568    -0.0000
  7 N      7.5579     7.0000    -0.5579     2.9021     2.9021    -0.0000
  8 C      6.0808     6.0000    -0.0808     3.9268     3.9268     0.0000
  9 H      0.8837     1.0000     0.1163     0.9599     0.9599    -0.0000
 10 H      0.8973     1.0000     0.1027     0.9597     0.9597    -0.0000
 11 C      6.3261     6.0000    -0.3261     3.8796     3.8796     0.0000
 12 H      0.8975     1.0000     0.1025     0.9580     0.9580     0.0000
 13 C      6.3188     6.0000    -0.3188     3.8870     3.8870    -0.0000
 14 H      0.8816     1.0000     0.1184     0.9612     0.9612     0.0000
 15 H      0.8960     1.0000     0.1040     0.9581     0.9581     0.0000
 16 H      0.9025     1.0000     0.0975     0.9544     0.9544     0.0000
 17 H      0.8971     1.0000     0.1029     0.9569     0.9569    -0.0000
 18 H      0.8944     1.0000     0.1056     0.9580     0.9580    -0.0000
 19 O      8.4540     8.0000    -0.4540     2.0400     2.0400     0.0000
 20 H      0.6850     1.0000     0.3150     0.9201     0.9201     0.0000
 21 O      8.4228     8.0000    -0.4228     2.1097     2.1097     0.0000

  Mayer bond orders larger than 0.100000
B(  0-C ,  1-C ) :   0.8927 B(  0-C ,  4-C ) :   0.9791 B(  0-C ,  5-H ) :   0.9229 
B(  0-C ,  7-N ) :   1.0437 B(  1-C , 19-O ) :   1.0720 B(  1-C , 21-O ) :   1.9211 
B(  2-H ,  7-N ) :   0.9096 B(  3-H ,  7-N ) :   0.8965 B(  4-C ,  8-C ) :   0.9960 
B(  4-C ,  9-H ) :   0.9351 B(  4-C , 10-H ) :   0.9381 B(  6-H , 13-C ) :   0.9596 
B(  8-C , 11-C ) :   1.0078 B(  8-C , 13-C ) :   1.0062 B(  8-C , 16-H ) :   0.9346 
B( 11-C , 12-H ) :   0.9592 B( 11-C , 14-H ) :   0.9520 B( 11-C , 15-H ) :   0.9580 
B( 13-C , 17-H ) :   0.9592 B( 13-C , 18-H ) :   0.9591 B( 19-O , 20-H ) :   0.8516 


-------
TIMINGS
-------

Total SCF time: 0 days 0 hours 0 min 7 sec 

Total time                  ....       7.565 sec
Sum of individual times     ....       7.089 sec  ( 93.7%)

SCF preparation             ....       0.029 sec  (  0.4%)
Fock matrix formation       ....       6.951 sec  ( 91.9%)
  Startup                   ....       0.001 sec  (  0.0% of F)
  Split-RI-J                ....       2.414 sec  ( 34.7% of F)
  XC integration            ....       4.936 sec  ( 71.0% of F)
    Basis function eval.    ....       1.760 sec  ( 35.6% of XC)
    Density eval.           ....       1.108 sec  ( 22.4% of XC)
    XC-Functional eval.     ....       0.875 sec  ( 17.7% of XC)
    XC-Potential eval.      ....       1.064 sec  ( 21.6% of XC)
Diagonalization             ....       0.000 sec  (  0.0%)
Density matrix formation    ....       0.005 sec  (  0.1%)
Total Energy calculation    ....       0.001 sec  (  0.0%)
Population analysis         ....       0.046 sec  (  0.6%)
Orbital Transformation      ....       0.008 sec  (  0.1%)
Orbital Orthonormalization  ....       0.000 sec  (  0.0%)
DIIS solution               ....       0.028 sec  (  0.4%)
SOSCF solution              ....       0.021 sec  (  0.3%)
Finished LeanSCF after   7.6 sec

Maximum memory used throughout the entire LEANSCF-calculation: 21.6 MB



-------------------------------------------------------------------------------
                          DFT DISPERSION CORRECTION                            
-------------------------------------------------------------------------------
Active option DFTDOPT                   ...         2   
Final C6-coefficient scaling factor     ...     1.250
Final VDW-radii scaling factor          ...     1.100
Damping factor alpha                    ...    20.000
-------------------------   ----------------
Dispersion correction           -0.034181188
-------------------------   ----------------


-------------------------   --------------------
FINAL SINGLE POINT ENERGY      -441.406678298340
-------------------------   --------------------

------------------------------------------------------------------------------
                         ORCA SCF GRADIENT CALCULATION
------------------------------------------------------------------------------

Nuc. rep. gradient        (SHARK) ... done (  0.0 sec)
HCore & Overlap gradient  (SHARK) ... done (  0.1 sec)
Split-RIJ-J gradient      (SHARK) ... done (  0.6 sec)
XC gradient                       ... done (  2.8 sec)
Dispersion correction             ... done (  0.0 sec)

-------------------
DISPERSION GRADIENT
-------------------

   1   C   :    0.000712834    0.000459629   -0.001067323
   2   C   :   -0.000064163    0.000677387    0.000219352
   3   H   :   -0.000053159    0.000508811   -0.000651854
   4   H   :   -0.000309763    0.000982718   -0.000443117
   5   C   :   -0.000019427    0.000454585    0.000325417
   6   H   :    0.000393217    0.001084675   -0.000272418
   7   H   :   -0.000719114   -0.001122873    0.000320019
   8   N   :   -0.000008009    0.000302202    0.000444780
   9   C   :   -0.001077457   -0.001121063   -0.000877988
  10   H   :    0.000637175    0.000438375   -0.000682116
  11   H   :   -0.000660059   -0.000174475   -0.000475580
  12   C   :   -0.000084207   -0.000681356    0.000503278
  13   H   :   -0.000769189    0.001006369    0.000161513
  14   C   :    0.000477245   -0.000412768    0.000199902
  15   H   :   -0.001269398   -0.001827732    0.000519673
  16   H   :   -0.000193323   -0.000213519    0.001532957
  17   H   :    0.000146066   -0.000921208    0.000013347
  18   H   :    0.000291034   -0.000103734   -0.001284851
  19   H   :    0.001059465   -0.001099326    0.000045131
  20   O   :    0.000735956    0.001211475    0.000605985
  21   H   :    0.000314625    0.000232918   -0.000223198
  22   O   :    0.000459652    0.000318908    0.001087090

Difference to translation invariance:
           :    0.0000000000   -0.0000000000   -0.0000000000

Difference to rotation invariance:
           :    0.0000000000   -0.0000000000    0.0000000000

Norm of the Dispersion gradient    ...    0.0057112594
RMS gradient                       ...    0.0007030074
MAX gradient                       ...    0.0018277319

------------------
CARTESIAN GRADIENT
------------------

   1   C   :    0.000455240   -0.000521525    0.003002726
   2   C   :    0.009679401   -0.000417989    0.000243786
   3   H   :   -0.001685243   -0.003604177   -0.001563563
   4   H   :   -0.004446564   -0.000805383   -0.000151837
   5   C   :   -0.000270395   -0.000507907   -0.006642021
   6   H   :    0.003538534    0.000845444   -0.001996653
   7   H   :   -0.006617196    0.000929941    0.005777623
   8   N   :    0.009391585   -0.001372656    0.007487442
   9   C   :    0.001211573    0.001986672    0.003084676
  10   H   :    0.004866356    0.000503706    0.004105119
  11   H   :   -0.004858146   -0.000305376    0.004390667
  12   C   :   -0.004591570   -0.001506749   -0.001048294
  13   H   :    0.001168637    0.006681253   -0.005175201
  14   C   :   -0.002632084   -0.002440077   -0.002783404
  15   H   :    0.001225347   -0.006525139   -0.005070036
  16   H   :    0.007815772    0.000082029    0.004797860
  17   H   :   -0.003666973   -0.000461605   -0.002659602
  18   H   :   -0.000052101    0.007241244   -0.004694637
  19   H   :    0.007119832    0.001603923    0.005353331
  20   O   :    0.016341183    0.007618923   -0.023654524
  21   H   :   -0.005828437   -0.001518376    0.003165523
  22   O   :   -0.028164751   -0.007506174    0.014031018

Difference to translation invariance:
           :    0.0000000000    0.0000000000    0.0000000000

Difference to rotation invariance:
           :   -0.0004770004   -0.0000308701    0.0000990791

Norm of the Cartesian gradient     ...    0.0543411428
RMS gradient                       ...    0.0066889323
MAX gradient                       ...    0.0281647512

-------
TIMINGS
-------

Total SCF gradient time     ....        3.583 sec

Densities                   ....       0.000 sec  (  0.0%)
One electron gradient       ....       0.139 sec  (  3.9%)
RI-J Coulomb gradient       ....       0.649 sec  ( 18.1%)
XC gradient                 ....       2.795 sec  ( 78.0%)

Maximum memory used throughout the entire SCFGRAD-calculation: 27.5 MB
------------------------------------------------------------------------------
                         ORCA GEOMETRY RELAXATION STEP
------------------------------------------------------------------------------

Reading the OPT-File                    .... done
Getting information on internals        .... done
Copying old internal coords+grads       .... done
Making the new internal coordinates     .... (2022 redundants) done
Validating the new internal coordinates .... (2022 redundants) done
Calculating the B-matrix                .... done
Calculating the G,G- and P matrices     .... done
Transforming gradient to internals      .... done
Projecting the internal gradient        .... done
Number of atoms                         ....  22
Number of internal coordinates          ....  94
Current Energy                          ....  -441.406678298 Eh
Current gradient norm                   ....     0.054341143 Eh/bohr
Maximum allowed component of the step   ....  0.300
Current trust radius                    ....  0.300
Evaluating the initial hessian          ....  (Almloef) done
Projecting the Hessian                  .... done
Forming the augmented Hessian           .... done
Diagonalizing the augmented Hessian     .... done
Last element of RFO vector              ....  0.987374715
Lowest eigenvalues of augmented Hessian:
 -0.005450104  0.010557285  0.010999346  0.011033203  0.011281228
Length of the computed step             ....  0.160427371
The final length of the internal step   ....  0.160427371
Converting the step to Cartesian space:
 Initial RMS(Int)=    0.0165468199
Transforming coordinates:
 Iter   0:  RMS(Cart)=    0.0284640959 RMS(Int)=    0.0165010804
done
Storing new coordinates                 .... done

                                .--------------------.
          ----------------------|Geometry convergence|-------------------------
          Item                value                   Tolerance       Converged
          ---------------------------------------------------------------------
          RMS gradient        0.0054571997            0.0001000000      NO
          MAX gradient        0.0322023392            0.0003000000      NO
          RMS step            0.0165468199            0.0020000000      NO
          MAX step            0.0618806480            0.0040000000      NO
          -------------------------------------------------------------------------
          ........................................................
          Max(Bonds)      0.0176      Max(Angles)    1.63
          Max(Dihed)        3.55      Max(Improp)    0.00
          ---------------------------------------------------------------------

The optimization has not yet converged - more geometry cycles are needed


    ---------------------------------------------------------------------------
                         Redundant Internal Coordinates
                            (Angstroem and degrees)

        Definition                    Value    dE/dq     Step     New-Value
    ----------------------------------------------------------------------------
     1. B(C   1,C   0)                1.5225 -0.010234  0.0139    1.5364   
     2. B(C   4,C   0)                1.5378 -0.006413  0.0092    1.5471   
     3. B(H   5,C   0)                1.0928 -0.003930  0.0057    1.0985   
     4. B(N   7,H   3)                1.0159 -0.003612  0.0045    1.0204   
     5. B(N   7,C   0)                1.4528 -0.008327  0.0098    1.4626   
     6. B(N   7,H   2)                1.0148 -0.003797  0.0047    1.0194   
     7. B(C   8,C   4)                1.5316 -0.007321  0.0103    1.5419   
     8. B(H   9,C   4)                1.0912 -0.006372  0.0093    1.1004   
     9. B(H  10,C   4)                1.0929 -0.006480  0.0095    1.1024   
    10. B(C  11,C   8)                1.5268 -0.008369  0.0116    1.5384   
    11. B(H  12,C  11)                1.0877 -0.008450  0.0121    1.0998   
    12. B(C  13,C   8)                1.5282 -0.008292  0.0115    1.5397   
    13. B(C  13,H   6)                1.0876 -0.008757  0.0126    1.1001   
    14. B(H  14,C  11)                1.0863 -0.008266  0.0118    1.0981   
    15. B(H  15,C  11)                1.0877 -0.009162  0.0132    1.1009   
    16. B(H  16,C   8)                1.0956 -0.004555  0.0067    1.1023   
    17. B(H  17,C  13)                1.0874 -0.008567  0.0123    1.0997   
    18. B(H  18,C  13)                1.0878 -0.009032  0.0130    1.1007   
    19. B(O  19,C   1)                1.3383 -0.022659  0.0176    1.3558   
    20. B(H  20,O  19)                0.9712 -0.003412  0.0036    0.9748   
    21. B(O  21,C   1)                1.2034 -0.032202  0.0153    1.2186   
    22. A(C   4,C   0,N   7)          108.37 -0.001861    0.49    108.86   
    23. A(C   1,C   0,H   5)          108.80  0.000116   -0.17    108.63   
    24. A(H   5,C   0,N   7)          108.49  0.000946   -0.24    108.26   
    25. A(C   4,C   0,H   5)          110.23  0.000845   -0.54    109.68   
    26. A(C   1,C   0,N   7)          111.73 -0.000662    0.42    112.15   
    27. A(C   1,C   0,C   4)          109.21  0.000637    0.02    109.23   
    28. A(C   0,C   1,O  21)          124.46  0.001367   -0.12    124.34   
    29. A(C   0,C   1,O  19)          112.90  0.003108   -0.38    112.53   
    30. A(O  19,C   1,O  21)          122.62 -0.004512    0.58    123.20   
    31. A(H   9,C   4,H  10)          107.79  0.000747   -0.30    107.49   
    32. A(C   0,C   4,H  10)          107.63  0.001608   -0.15    107.48   
    33. A(C   8,C   4,H   9)          109.73  0.000950   -0.18    109.55   
    34. A(C   0,C   4,H   9)          107.02  0.001478   -0.24    106.78   
    35. A(C   0,C   4,C   8)          115.35 -0.003790    0.68    116.02   
    36. A(C   8,C   4,H  10)          109.05 -0.000696    0.13    109.18   
    37. A(C   0,N   7,H   2)          110.57  0.000731   -0.39    110.18   
    38. A(H   2,N   7,H   3)          107.28  0.000785   -0.76    106.51   
    39. A(C   0,N   7,H   3)          109.29  0.002427   -0.68    108.61   
    40. A(C  13,C   8,H  16)          108.25  0.000411   -0.20    108.06   
    41. A(C   4,C   8,H  16)          108.92  0.000258   -0.31    108.62   
    42. A(C  11,C   8,H  16)          108.52  0.000404   -0.28    108.24   
    43. A(C  11,C   8,C  13)          110.07 -0.001129    0.48    110.55   
    44. A(C   4,C   8,C  13)          109.02 -0.000903    0.36    109.38   
    45. A(C   4,C   8,C  11)          111.98  0.000970   -0.08    111.90   
    46. A(H  14,C  11,H  15)          108.89  0.000546   -0.15    108.74   
    47. A(H  12,C  11,H  15)          108.39  0.001110   -0.26    108.13   
    48. A(C   8,C  11,H  15)          110.38  0.000192   -0.08    110.30   
    49. A(H  12,C  11,H  14)          107.98  0.000984   -0.07    107.91   
    50. A(C   8,C  11,H  14)          111.05 -0.001409    0.28    111.33   
    51. A(C   8,C  11,H  12)          110.07 -0.001330    0.27    110.34   
    52. A(H   6,C  13,H  18)          108.41  0.000843   -0.21    108.20   
    53. A(C   8,C  13,H  17)          110.53 -0.001081    0.22    110.75   
    54. A(H   6,C  13,H  17)          108.33  0.000819   -0.04    108.29   
    55. A(H   6,C  13,C   8)          110.80 -0.001309    0.26    111.06   
    56. A(H  17,C  13,H  18)          108.41  0.000953   -0.23    108.17   
    57. A(C   8,C  13,H  18)          110.29 -0.000126   -0.02    110.27   
    58. A(C   1,O  19,H  20)          110.67  0.010796   -1.63    109.04   
    59. D(O  19,C   1,C   0,H   5)     22.39 -0.000268    0.92     23.31   
    60. D(O  21,C   1,C   0,H   5)   -156.49  0.001890   -3.55   -160.03   
    61. D(O  21,C   1,C   0,C   4)     83.16  0.000411   -2.80     80.36   
    62. D(O  19,C   1,C   0,N   7)    142.16  0.000573    0.77    142.93   
    63. D(O  19,C   1,C   0,C   4)    -97.96 -0.001747    1.66    -96.30   
    64. D(C   8,C   4,C   0,C   1)     60.44  0.000949   -0.43     60.01   
    65. D(C   8,C   4,C   0,H   5)    -59.04 -0.000103    0.09    -58.95   
    66. D(H   9,C   4,C   0,H   5)     63.36 -0.000274    0.12     63.48   
    67. D(H   9,C   4,C   0,N   7)    -55.24 -0.000792    0.43    -54.81   
    68. D(C   8,C   4,C   0,N   7)   -177.63 -0.000621    0.40   -177.23   
    69. D(H   9,C   4,C   0,C   1)   -177.17  0.000778   -0.40   -177.57   
    70. D(H   2,N   7,C   0,H   5)     57.74 -0.000993    0.25     57.99   
    71. D(H   2,N   7,C   0,C   4)    177.42 -0.000506   -0.25    177.17   
    72. D(H   3,N   7,C   0,C   1)     55.66  0.001526   -1.22     54.44   
    73. D(H   2,N   7,C   0,C   1)    -62.21 -0.001347    0.36    -61.85   
    74. D(H   3,N   7,C   0,C   4)    -64.71  0.002367   -1.83    -66.54   
    75. D(C  13,C   8,C   4,H  10)    -56.45 -0.001242    0.09    -56.35   
    76. D(C  13,C   8,C   4,H   9)     61.41 -0.000196   -0.30     61.11   
    77. D(C  13,C   8,C   4,C   0)   -177.65 -0.000191   -0.28   -177.93   
    78. D(C  11,C   8,C   4,H  10)   -178.49  0.000170   -0.71   -179.20   
    79. D(C  11,C   8,C   4,H   9)    -60.63  0.001216   -1.11    -61.73   
    80. D(C  11,C   8,C   4,C   0)     60.31  0.001221   -1.09     59.22   
    81. D(H  14,C  11,C   8,H  16)     52.73 -0.000129    0.75     53.48   
    82. D(H  14,C  11,C   8,C  13)    171.02 -0.000042    0.62    171.65   
    83. D(H  14,C  11,C   8,C   4)    -67.54 -0.001322    1.37    -66.17   
    84. D(H  12,C  11,C   8,H  16)    -66.79  0.000406    0.49    -66.30   
    85. D(H  12,C  11,C   8,C  13)     51.50  0.000493    0.36     51.86   
    86. D(H  12,C  11,C   8,C   4)    172.94 -0.000787    1.11    174.05   
    87. D(H   6,C  13,C   8,H  16)    -60.77  0.000294   -0.13    -60.90   
    88. D(H   6,C  13,C   8,C  11)   -179.23  0.000208    0.05   -179.18   
    89. D(H   6,C  13,C   8,C   4)     57.59  0.000330   -0.41     57.18   
    90. D(H  17,C  13,C   8,H  16)     59.33 -0.000244    0.14     59.47   
    91. D(H  17,C  13,C   8,C  11)    -59.13 -0.000330    0.32    -58.81   
[...]
      px      :     0.002423
      py      :     0.005017

 13 C s       :     3.260368  s :     3.260368
      pz      :     1.015673  p :     3.028937
      px      :     1.038519
      py      :     0.974746
      dz2     :     0.001299  d :     0.029602
      dxz     :     0.009516
      dyz     :     0.008299
      dx2y2   :     0.008435
      dxy     :     0.002053

 14 H s       :     0.869986  s :     0.869986
      pz      :     0.003879  p :     0.011503
      px      :     0.002458
      py      :     0.005167

 15 H s       :     0.886310  s :     0.886310
      pz      :     0.003493  p :     0.011251
      px      :     0.005202
      py      :     0.002556

 16 H s       :     0.890752  s :     0.890752
      pz      :     0.003815  p :     0.011339
      px      :     0.004982
      py      :     0.002542

 17 H s       :     0.885498  s :     0.885498
      pz      :     0.003919  p :     0.011274
      px      :     0.002566
      py      :     0.004788

 18 H s       :     0.883866  s :     0.883866
      pz      :     0.003809  p :     0.011274
      px      :     0.004966
      py      :     0.002499

 19 O s       :     3.844715  s :     3.844715
      pz      :     1.307302  p :     4.593858
      px      :     1.527511
      py      :     1.759045
      dz2     :     0.005733  d :     0.023084
      dxz     :     0.007072
      dyz     :     0.003746
      dx2y2   :     0.004513
      dxy     :     0.002020

 20 H s       :     0.645667  s :     0.645667
      pz      :     0.009866  p :     0.037323
      px      :     0.018227
      py      :     0.009230

 21 O s       :     3.872378  s :     3.872378
      pz      :     1.707328  p :     4.528989
      px      :     1.402153
      py      :     1.419508
      dz2     :     0.003461  d :     0.027314
      dxz     :     0.006974
      dyz     :     0.001829
      dx2y2   :     0.006875
      dxy     :     0.008175



                     *******************************
                     * LOEWDIN POPULATION ANALYSIS *
                     *******************************

----------------------
LOEWDIN ATOMIC CHARGES
----------------------
   0 C :   -0.048659
   1 C :    0.125525
   2 H :    0.126737
   3 H :    0.129546
   4 C :   -0.112538
   5 H :    0.079933
   6 H :    0.069347
   7 N :   -0.249429
   8 C :   -0.072519
   9 H :    0.077527
  10 H :    0.070934
  11 C :   -0.202718
  12 H :    0.070042
  13 C :   -0.197304
  14 H :    0.072062
  15 H :    0.067490
  16 H :    0.065257
  17 H :    0.069347
  18 H :    0.068388
  19 O :   -0.157770
  20 H :    0.182303
  21 O :   -0.233502

-------------------------------
LOEWDIN REDUCED ORBITAL CHARGES
-------------------------------
  0 C s       :     2.890208  s :     2.890208
      pz      :     0.998011  p :     3.033658
      px      :     1.036259
      py      :     0.999389
      dz2     :     0.014971  d :     0.124793
      dxz     :     0.038992
      dyz     :     0.029311
      dx2y2   :     0.029436
      dxy     :     0.012082

  1 C s       :     2.875765  s :     2.875765
      pz      :     0.896908  p :     2.721770
      px      :     1.027273
      py      :     0.797589
      dz2     :     0.080910  d :     0.276939
      dxz     :     0.086943
      dyz     :     0.037225
      dx2y2   :     0.038824
      dxy     :     0.033037

  2 H s       :     0.796349  s :     0.796349
      pz      :     0.019806  p :     0.076915
      px      :     0.018665
      py      :     0.038444

  3 H s       :     0.792623  s :     0.792623
      pz      :     0.024225  p :     0.077832
      px      :     0.042143
      py      :     0.011464

  4 C s       :     2.915496  s :     2.915496
      pz      :     1.044041  p :     3.118446
      px      :     1.085841
      py      :     0.988564
      dz2     :     0.006128  d :     0.078596
      dxz     :     0.022865
      dyz     :     0.019949
      dx2y2   :     0.023550
      dxy     :     0.006105

  5 H s       :     0.880411  s :     0.880411
      pz      :     0.012156  p :     0.039656
      px      :     0.020616
      py      :     0.006885

  6 H s       :     0.892549  s :     0.892549
      pz      :     0.013131  p :     0.038104
      px      :     0.018326
      py      :     0.006647

  7 N s       :     3.224990  s :     3.224990
      pz      :     1.340861  p :     3.967080
      px      :     1.469341
      py      :     1.156878
      dz2     :     0.009131  d :     0.057359
      dxz     :     0.009750
      dyz     :     0.017725
      dx2y2   :     0.018409
      dxy     :     0.002344

  8 C s       :     2.887868  s :     2.887868
      pz      :     1.029581  p :     3.087854
      px      :     1.045732
      py      :     1.012541
      dz2     :     0.008899  d :     0.096796
      dxz     :     0.026784
      dyz     :     0.026450
      dx2y2   :     0.025607
      dxy     :     0.009056

  9 H s       :     0.883493  s :     0.883493
      pz      :     0.013990  p :     0.038980
      px      :     0.018555
      py      :     0.006435

 10 H s       :     0.890520  s :     0.890520
      pz      :     0.013306  p :     0.038545
      px      :     0.018671
      py      :     0.006568

 11 C s       :     2.928347  s :     2.928347
      pz      :     1.069278  p :     3.212614
      px      :     1.053227
      py      :     1.090110
      dz2     :     0.002918  d :     0.061757
      dxz     :     0.018092
      dyz     :     0.019375
      dx2y2   :     0.018612
      dxy     :     0.002759

 12 H s       :     0.891832  s :     0.891832
      pz      :     0.013176  p :     0.038126
      px      :     0.006717
      py      :     0.018233

 13 C s       :     2.929597  s :     2.929597
      pz      :     1.074352  p :     3.205619
      px      :     1.088176
      py      :     1.043091
      dz2     :     0.002527  d :     0.062088
      dxz     :     0.018892
      dyz     :     0.018497
      dx2y2   :     0.018279
      dxy     :     0.003893

 14 H s       :     0.888581  s :     0.888581
      pz      :     0.013258  p :     0.039357
      px      :     0.006845
      py      :     0.019254

 15 H s       :     0.894451  s :     0.894451
      pz      :     0.011809  p :     0.038059
      px      :     0.019455
      py      :     0.006795

 16 H s       :     0.896601  s :     0.896601
      pz      :     0.012751  p :     0.038142
      px      :     0.018374
      py      :     0.007017

 17 H s       :     0.892544  s :     0.892544
      pz      :     0.013664  p :     0.038109
      px      :     0.006772
      py      :     0.017673

 18 H s       :     0.893545  s :     0.893545
      pz      :     0.012760  p :     0.038066
      px      :     0.018331
      py      :     0.006976

 19 O s       :     3.499568  s :     3.499568
      pz      :     1.347806  p :     4.609550
      px      :     1.532950
      py      :     1.728795
      dz2     :     0.016959  d :     0.048652
      dxz     :     0.015761
      dyz     :     0.007379
      dx2y2   :     0.006746
      dxy     :     0.001807

 20 H s       :     0.703979  s :     0.703979
      pz      :     0.028479  p :     0.113717
      px      :     0.059108
      py      :     0.026131

 21 O s       :     3.568847  s :     3.568847
      pz      :     1.703158  p :     4.608998
      px      :     1.491245
      py      :     1.414595
      dz2     :     0.007679  d :     0.055657
      dxz     :     0.015328
      dyz     :     0.003122
      dx2y2   :     0.015856
      dxy     :     0.013672



                      *****************************
                      * MAYER POPULATION ANALYSIS *
                      *****************************

  NA   - Mulliken gross atomic population
  ZA   - Total nuclear charge
  QA   - Mulliken gross atomic charge
  VA   - Mayer's total valence
  BVA  - Mayer's bonded valence
  FA   - Mayer's free valence

  ATOM       NA         ZA         QA         VA         BVA        FA
  0 C      6.0501     6.0000    -0.0501     3.8616     3.8616    -0.0000
  1 C      5.4981     6.0000     0.5019     3.9041     3.9041     0.0000
  2 H      0.7613     1.0000     0.2387     0.9191     0.9191     0.0000
  3 H      0.7527     1.0000     0.2473     0.9299     0.9299    -0.0000
  4 C      6.1672     6.0000    -0.1672     3.8566     3.8566    -0.0000
  5 H      0.8754     1.0000     0.1246     0.9530     0.9530     0.0000
  6 H      0.8950     1.0000     0.1050     0.9573     0.9573     0.0000
  7 N      7.5544     7.0000    -0.5544     2.8949     2.8949    -0.0000
  8 C      6.0769     6.0000    -0.0769     3.9176     3.9176    -0.0000
  9 H      0.8830     1.0000     0.1170     0.9597     0.9597    -0.0000
 10 H      0.8967     1.0000     0.1033     0.9597     0.9597     0.0000
 11 C      6.3263     6.0000    -0.3263     3.8756     3.8756    -0.0000
 12 H      0.8975     1.0000     0.1025     0.9583     0.9583    -0.0000
 13 C      6.3189     6.0000    -0.3189     3.8822     3.8822     0.0000
 14 H      0.8815     1.0000     0.1185     0.9616     0.9616    -0.0000
 15 H      0.8976     1.0000     0.1024     0.9584     0.9584    -0.0000
 16 H      0.9021     1.0000     0.0979     0.9545     0.9545    -0.0000
 17 H      0.8968     1.0000     0.1032     0.9575     0.9575     0.0000
 18 H      0.8951     1.0000     0.1049     0.9584     0.9584     0.0000
 19 O      8.4617     8.0000    -0.4617     2.0350     2.0350     0.0000
 20 H      0.6830     1.0000     0.3170     0.9190     0.9190    -0.0000
 21 O      8.4287     8.0000    -0.4287     2.1001     2.1001    -0.0000

  Mayer bond orders larger than 0.100000
B(  0-C ,  1-C ) :   0.8953 B(  0-C ,  4-C ) :   0.9735 B(  0-C ,  5-H ) :   0.9227 
B(  0-C ,  7-N ) :   1.0380 B(  1-C , 19-O ) :   1.0571 B(  1-C , 21-O ) :   1.8976 
B(  2-H ,  7-N ) :   0.9083 B(  3-H ,  7-N ) :   0.8947 B(  4-C ,  8-C ) :   0.9913 
B(  4-C ,  9-H ) :   0.9344 B(  4-C , 10-H ) :   0.9381 B(  6-H , 13-C ) :   0.9585 
B(  8-C , 11-C ) :   1.0039 B(  8-C , 13-C ) :   1.0019 B(  8-C , 16-H ) :   0.9342 
B( 11-C , 12-H ) :   0.9585 B( 11-C , 14-H ) :   0.9505 B( 11-C , 15-H ) :   0.9574 
B( 13-C , 17-H ) :   0.9584 B( 13-C , 18-H ) :   0.9582 B( 19-O , 20-H ) :   0.8519 


-------
TIMINGS
-------

Total SCF time: 0 days 0 hours 0 min 2 sec 

Total time                  ....       2.560 sec
Sum of individual times     ....       2.070 sec  ( 80.8%)

SCF preparation             ....       0.032 sec  (  1.3%)
Fock matrix formation       ....       2.012 sec  ( 78.6%)
  Startup                   ....       0.001 sec  (  0.0% of F)
  Split-RI-J                ....       0.791 sec  ( 39.3% of F)
  XC integration            ....       1.645 sec  ( 81.8% of F)
    Basis function eval.    ....       0.582 sec  ( 35.4% of XC)
    Density eval.           ....       0.376 sec  ( 22.9% of XC)
    XC-Functional eval.     ....       0.292 sec  ( 17.8% of XC)
    XC-Potential eval.      ....       0.354 sec  ( 21.5% of XC)
Diagonalization             ....       0.000 sec  (  0.0%)
Density matrix formation    ....       0.001 sec  (  0.1%)
Total Energy calculation    ....       0.000 sec  (  0.0%)
Population analysis         ....       0.008 sec  (  0.3%)
Orbital Transformation      ....       0.003 sec  (  0.1%)
Orbital Orthonormalization  ....       0.000 sec  (  0.0%)
DIIS solution               ....       0.004 sec  (  0.1%)
SOSCF solution              ....       0.010 sec  (  0.4%)
Finished LeanSCF after   2.6 sec

Maximum memory used throughout the entire LEANSCF-calculation: 21.9 MB



-------------------------------------------------------------------------------
                          DFT DISPERSION CORRECTION                            
-------------------------------------------------------------------------------
Active option DFTDOPT                   ...         2   
Final C6-coefficient scaling factor     ...     1.250
Final VDW-radii scaling factor          ...     1.100
Damping factor alpha                    ...    20.000
-------------------------   ----------------
Dispersion correction           -0.033766786
-------------------------   ----------------


-------------------------   --------------------
FINAL SINGLE POINT ENERGY      -441.410254060973
-------------------------   --------------------

                                *** OPTIMIZATION RUN DONE ***


------------------------------------------------------------------------------
                              ORCA PROPERTY CALCULATIONS
------------------------------------------------------------------------------

GBWName                                 ... 2.gbw
Number of atoms                         ...     22
Number of basis functions               ...    191
Max core memory                         ...   4096 MB

Electric properties:
Dipole moment                           ... YES
Quadrupole moment                       ...  NO
Static polarizability (Dipole/Dipole)   ...  NO
Static polarizability (Dipole/Quad.)    ...  NO
Static polarizability (Quad./Quad.)     ...  NO
Static polarizability (Velocity)        ...  NO
Static hyperpolarizability              ...  NO

Atomic electric properties:
Dipole moment                           ...  NO
Quadrupole moment                       ...  NO
Static polarizability                   ...  NO

Choice of electric origin               ... Center of mass
Position of electric origin             ...   -17.422076    10.662077    -3.287954

General magnetic properties:
Magnetizability                         ...  NO

EPR properties:
g-Tensor (aka g-matrix)                 ...  NO
Zero-Field splitting spin-orbit         ...  NO
Zero-field splitting spin-spin          ...  NO
Hyperfine couplings                     ...  NO (   0 nuclei)
Quadrupole couplings                    ...  NO (   0 nuclei)
Contact density                         ...  NO (   0 nuclei)

NMR properties:
Chemical shifts                         ...  NO (   0 nuclei)
Spin-rotation constants                 ...  NO (   0 nuclei)
Spin-spin couplings                     ...  NO (   0 nuclei,    0 pairs)

Choice of magnetic origin               ... GIAO
Position of magnetic origin             ...     0.000000     0.000000     0.000000

Properties with geometric perturbations:
SCF Hessian                             ...  NO
IR spectrum                             ...  NO
VCD spectrum                            ...  NO
X-ray spectroscopy properties:
SCF XES/XAS/RIXS spectra                ...  NO

SCF SOC stabilization energy            ...  NO
Diagonal Born-Oppenheimer correction    ...  NO

-------------
DIPOLE MOMENT
-------------

Method             : SCF
Type of density    : Electron Density
Multiplicity       :   1
Irrep              :   0
Energy             :  -441.3764872751581265 Eh
Basis              : AO
                                X                 Y                 Z
Electronic contribution:      6.218003448       9.781836586       2.759827896
Nuclear contribution   :     -6.260582421      -9.856133351      -2.209477328
                        -----------------------------------------
Total Dipole Moment    :     -0.042578972      -0.074296766       0.550350569
                        -----------------------------------------
Magnitude (a.u.)       :      0.556972824
Magnitude (Debye)      :      1.415712410



--------------------
Rotational spectrum 
--------------------
 
Rotational constants in cm-1:             0.072768             0.034539             0.030403 
Rotational constants in MHz :          2181.520118          1035.444677           911.463296 

Dipole components along the rotational axes: 
x,y,z [a.u.] :     0.056499    -0.518745    -0.194757 
x,y,z [Debye]:     0.143610    -1.318544    -0.495034 

 

Dipole moment calculation done in   0.0 sec 

Maximum memory used throughout the entire PROP-calculation: 12.2 MB

--------------------------------
SUGGESTED CITATIONS FOR THIS RUN
--------------------------------

Below you find a list of papers that are relevant to this ORCA run
We neither can nor want to force you to cite these papers, but we appreciate if you do
You receive ORCA, which is the product of decades of hard work by many enthusiastic individuals, for free
The only thing we kindly ask in return is that you cite our papers,
We deeply appreciate it, if you show your appreciation for ORCA by not just citing the generic ORCA reference.

Please note that relegating all ORCA citations to the supporting information does *not* help us.
SI sections are not indexed - citations you put there will not count into any citation statistics
But we need these citations in order to attract the funding resources that allow us to do what we are doing

Therefore, if you are a happy ORCA user, please consider citing a few of the papers listed below in the main body of your paper

In addition to the list printed below, the program has created the file 2.bibtex that contains the list in bibtex format
You can import this file easily into all common literature databanks and citation aid programs


List of essential papers. We consider these as the minimum necessary citations

  1. Neese, F.
     Software update: the ORCA program system, version 6.0
     WIRES Comput. Molec. Sci. 2025 15(1), e70019
     doi.org/10.1002/wcms.7019

List of papers to cite with high priority. The work reported in these papers was absolutely
necessary for this run to complete.
Our perspective: the developers of density functionals and basis sets usually get cited in chemistry papers
Good! But without the algorithms to do something with them, the functionals or basis sets would not do anything.
Hence, in our opinion, the algorithm design and method developments papers are equally worthy of getting cited

  1. Neese, F.
     An improvement of the resolution of the identity approximation for the formation of the Coulomb matrix
     J. Comp. Chem. 2003 24(14), 1740-1747
     doi.org/10.1002/jcc.10318
  2. Grimme, S.
     Semiempirical GGA-type density functional constructed with a long-range dispersion correction
     J.Comput.Chem. 2006 27(15), 1787-1799
     doi.org/10.1002/jcc.20495
  3. Neese, F.
     The SHARK Integral Generation and Digestion System
     J. Comp. Chem. 2022 44(3), 381
     doi.org/10.1002/jcc.26942

List of suggested additional citations. These are papers that are important in the 'surrounding' of 
of this run, or papers that preceded the highly important papers. If you like your results we are grateful for a citation.

  1. Neese, F.
     The ORCA program system
     WIRES Comput. Molec. Sci. 2012 2(1), 73-78
     doi.org/10.1002/wcms.81
  2. Neese, F.
     Software update: the ORCA program system, version 4.0
     WIRES Comput. Molec. Sci. 2018 8(1), 1-6
     doi.org/10.1002/wcms.1327
  3. Neese, F.; Wennmohs, F.; Becker, U.; Riplinger, C.
     The ORCA quantum chemistry program package
     J. Chem. Phys. 2020 152(22), 224108
     doi.org/10.1063/5.0004608
  4. Neese, F.
     Software update: The ORCA program system—Version 5.0
     WIRES Comput. Molec. Sci. 2022 12(1), e1606
     doi.org/10.1002/wcms.1606

List of optional additional citations

  1. Neese, F.
     Approximate second-order SCF convergence for spin unrestricted wavefunctions
     Chem. Phys. Lett. 2000 325(1-3), 93-98
     doi.org/10.1016/s0009-2614(00)00662-x

Timings for individual modules:

Sum of individual times          ...       63.051 sec (=   1.051 min)
Startup calculation              ...        3.336 sec (=   0.056 min)   5.3 %
SCF iterations                   ...       37.927 sec (=   0.632 min)  60.2 %
Property calculations            ...        0.042 sec (=   0.001 min)   0.1 %
SCF Gradient evaluation          ...       21.733 sec (=   0.362 min)  34.5 %
Geometry relaxation              ...        0.013 sec (=   0.000 min)   0.0 %
                             ****ORCA TERMINATED NORMALLY****
TOTAL RUN TIME: 0 days 0 hours 1 minutes 3 seconds 233 msec
