
                                 *****************
                                 * O   R   C   A *
                                 *****************

                                            #,                                       
                                            ###                                      
                                            ####                                     
                                            #####                                    
                                            ######                                   
                                           ########,                                 
                                     ,,################,,,,,                         
                               ,,#################################,,                 
                          ,,##########################################,,             
                       ,#########################################, ''#####,          
                    ,#############################################,,   '####,        
                  ,##################################################,,,,####,       
                ,###########''''           ''''###############################       
              ,#####''   ,,,,##########,,,,          '''####'''          '####       
            ,##' ,,,,###########################,,,                        '##       
           ' ,,###''''                  '''############,,,                           
         ,,##''                                '''############,,,,        ,,,,,,###''
      ,#''                                            '''#######################'''  
     '                                                          ''''####''''         
             ,#######,   #######,   ,#######,      ##                                
            ,#'     '#,  ##    ##  ,#'     '#,    #''#        ,####,    ,#,          
            ##       ##  ##   ,#'  ##            #'  '#       #'       ,# #          
            ##       ##  #######   ##           ,######,      #####,      #          
            '#,     ,#'  ##    ##  '#,     ,#' ,#      #,     #,   #      #          
             '#######'   ##     ##  '#######'  #'      '#     '####' #    #          



                #########################################################
                #                        -***-                          #
                #          Department of theory and spectroscopy        #
                #                                                       #
                #                      Frank Neese                      #
                #                                                       #
                #     Directorship, Architecture, Infrastructure        #
                #                    SHARK, DRIVERS                     #
                #        Core code/Algorithms in most modules           #
                #                                                       #
                #        Max Planck Institute fuer Kohlenforschung      #
                #                Kaiser Wilhelm Platz 1                 #
                #                 D-45470 Muelheim/Ruhr                 #
                #                      Germany                          #
                #                                                       #
                #                  All rights reserved                  #
                #                        -***-                          #
                #########################################################


                         Program Version 6.1.0  -  RELEASE   -
                                (GIT: $679e74b$)
                          ($2025-06-10 18:02:51 +0200$)


 With contributions from (in alphabetic order):
[Max-Planck-Institut fuer Kohlenforschung]                               
  Daniel Aravena         : Magnetic Suceptibility                        
  Michael Atanasov       : Ab Initio Ligand Field Theory (pilot matlab implementation)
  Alexander A. Auer      : GIAO ZORA, VPT2 properties, NMR spectrum      
  Ute Becker             : All parallelization in ORCA, NUMFREQ, NUMCALC 
  Giovanni Bistoni       : ED, misc. LED, open-shell LED, HFLD           
  Dmytro Bykov           : pre 5.0 version of the SCF Hessian            
  Marcos Casanova-Páez   : Triplet and SCS-CIS(D). UHF-(DLPNO)-IP/EA/STEOM-CCSD. UHF-CVS-IP/STEOM-CCSD   
  Vijay G. Chilkuri      : MRCI spin determinant printing, contributions to CSF-ICE 
  Pauline Colinet        : FMM embedding                                 
  Dipayan Datta          : RHF DLPNO-CCSD density                        
  Achintya Kumar Dutta   : EOM-CC, STEOM-CC                              
  Nicolas Foglia         : Exact transition moments, OPA infrastructure, MCD improvements    
  Dmitry Ganyushin       : Spin-Orbit,Spin-Spin,Magnetic field MRCI      
  Miquel Garcia-Rates    : C-PCM and meta-GGA Hessian, CCSD/C-PCM, Gaussian charge scheme 
  Tiago L. C. Gouveia    : GS-ROHF, GS-ROCIS                             
  Yang Guo               : DLPNO-NEVPT2, F12-NEVPT2, CIM, IAO-localization        
  Andreas Hansen         : Spin unrestricted coupled pair/coupled cluster methods 
  Ingolf Harden          : AUTO-CI MPn and infrastructure                
  Benjamin Helmich-Paris : MC-RPA, TRAH-(SCF,CASSCF), AVAS, COSX integrals, SCF dyn. polar., MC-PDFT, srDFT 
  Lee Huntington         : MR-EOM, pCC                                   
  Robert Izsak           : Overlap fitted RIJCOSX, COSX-SCS-MP3, EOM     
  Riya Kayal             : Wick's Theorem for AUTO-CI, AUTO-CI UHF-CCSDT 
  Emily Kempfer          : AUTO-CI RHF CISDT and CCSDT, approximate NEVPT4
  Christian Kollmar      : KDIIS, OOCD, Brueckner-CCSD(T), CCSD density, CASPT2, CASPT2-K, improved NEVPT2 
  Axel Koslowski         : Symmetry handling                             
  Simone Kossmann        : meta-GGA functionals, TD-DFT gradient, OOMP2, (MP2 Hessian; deprecated post 5.0) 
  Lucas Lang             : DCDCAS, Hyperfine gauge corrections, ICE-SOC+SSC
  Marvin Lechner         : AUTO-CI (C++ implementation), FIC-MRCC        
  Spencer Leger          : CASSCF response                               
  Dagmar Lenk            : GEPOL surface, SMD, ORCA-2-JSON               
  Dimitrios Liakos       : Extrapolation schemes; Compound Job, Property file
  Dimitrios Manganas     : Further ROCIS development; embedding schemes. LFT, Crystal Embedding 
  Dimitrios Pantazis     : SARC Basis sets                               
  Anastasios Papadopoulos: AUTO-CI, single reference methods and gradients 
  Taras Petrenko         : pre 6.0 DFT Hessian and TD-DFT gradient,  ECA, NRVS 
  Petra Pikulova         : Analytic Raman intensities                    
  Peter Pinski           : DLPNO-MP2, DLPNO-MP2 Gradient                 
  Shashank Vittal Rao    : ES-AILFT, MagRelax                            
  Christoph Reimann      : Effective Core Potentials                     
  Marius Retegan         : Local ZFS, SOC                                
  Christoph Riplinger    : Optimizer, TS searches, QM/MM, DLPNO-CCSD(T), (RO)-DLPNO pert. Triples 
  Michael Roemelt        : Original ROCIS implementation, recursive CI coupling coefficients
  Masaaki Saitow         : Open-shell DLPNO-CCSD energy and density      
  Barbara Sandhoefer     : DKH picture change effects                    
  Yorick L. A. Schmerwitz: GMF and freeze-and-release deltaSCF, NEB S-IDPP initial path                    
  Kantharuban Sivalingam : CASSCF convergence/infrastructure, NEVPT2, NEVPT3, NEVPT4(SD), FIC-MRCI and CEPA variants
  Bernardo de Souza      : ESD, SOC TD-DFT                               
  Georgi L. Stoychev     : AutoAux, RI-MP2 NMR, DLPNO-MP2 response, X2C  
  Van Anh Tran           : RI-MP2 g-tensors                              
  Willem Van den Heuvel  : Paramagnetic NMR                              
  Zikuan Wang            : NOTCH, Electric field optimization            
  Frank Wennmohs         : Technical directorship and infrastructure     
  Hang Xu                : AUTO-CI-Response properties                   
                                                                         
[FACCTs GmbH]                                                            
  Markus Bursch, Nicolas Foglia, Miquel Garcia-Rates, Ingolf Harden, Hagen Neugebauer, Anastasios Papadopoulos, 
  Christoph Riplinger, Bernardo de Souza, Georgi L. Stoychev                                                    
                                                                 
  APM, various basis sets, CI-OPT, improved COSX, DLPNO-Multilevel,           
  DOCKER, DRACO, updates on ESD, Fragmentator, GOAT, IRC, LR-CPCM, L-BFGS, MBIS, meta-GGA TD-DFT gradient, ML-optimized integration grids, 
  MM, NACMEs, nearIR, NEB, NEB-TS, NL-DFT gradient (VV10), 2- and 3-layer-ONIOM, interface openCOSMO-RS, QMMM,   
  Crystal-QMMM, RESP, rigid body optimization, SF, symmetry and pop. for TD-DFT, various functionals, SOLVATOR                                   
                                                                         
[Other institutions]                                                     
  V. Asgeirsson          : NEB                                           
  Christoph Bannwarth    : sTDA-DFT, sTD-DFT, PBEh-3c, B97-3c, D3        
  Giovanni Bistoni       : ETS/NOCV, ADLD/ADEX, COVALED                  
  Martin Brehm           : Molecular dynamics                            
  Ronald Cardenas        : ETS/NOCV                                      
  Martina Colucci        : COVALED                                       
  Sebastian Ehlert       : rSCAN, r2SCAN, r2SCAN-3c, D4, dhf basis sets  
  Marvin Friede          : D4 for Fr, Ra, Ac-Lr                          
  Lars Goerigk           : TD-DFT with DH, B97 family of functionals     
  Stefan Grimme          : VdW corrections, initial TS optimization, DFT functionals, gCP, sTDA/sTD-DF 
  Waldemar Hujo          : DFT-NL                                        
  H. Jonsson             : NEB                                           
  Holger Kruse           : gCP                                           
  Marcel Mueller         : wB97X-3c, vDZP basis set                      
  Hagen Neugebauer       : wr2SCAN, Native XTB                           
  Gianluca Regni         : ADLD/ADEX                                     
  Tobias Risthaus        : pre 6.0 range-separated hybrid DFT and stability analysis
  Lukas Wittmann         : regularized MP2, r2SCAN double-hybrids, wr2SCAN        
                                                                         
We gratefully acknowledge several colleagues who have allowed us to      
interface, adapt or use parts of their codes:                            
  Ed Valeev, F. Pavosevic, A. Kumar             : LibInt (2-el integral package), F12 methods 
  Garnet Chan, S. Sharma, J. Yang, R. Olivares  : DMRG                   
  Ulf Ekstrom                                   : XCFun DFT Library      
  Mihaly Kallay                                 : mrcc  (arbitrary order and MRCC methods)
  Frank Weinhold                                : gennbo (NPA and NBO analysis)           
  Simon Mueller                                 : openCOSMO-RS                            
  Christopher J. Cramer and Donald G. Truhlar   : smd solvation model                     
  S Lehtola, MJT Oliveira, MAL Marques          : LibXC Library                           
  Liviu Ungur et al                             : ANISO software                          


 Your calculation uses the libint2 library for the computation of 2-el integrals
 For citations please refer to: http://libint.valeyev.net

 Your ORCA version has been built with support for libXC version: 7.0.0
 For citations please refer to: https://libxc.gitlab.io

 This ORCA versions uses:
   CBLAS   interface :  Fast vector & matrix operations
   LAPACKE interface :  Fast linear algebra routines
   SCALAPACK package :  Parallel linear algebra routines
   Shared memory     :  Shared parallel matrices
   BLAS/LAPACK       :  OpenBLAS 0.3.29  USE64BITINT DYNAMIC_ARCH NO_AFFINITY Haswell SINGLE_THREADED
        Core in use  :  Haswell
   Copyright (c) 2011-2014, The OpenBLAS Project


  ***********************************
  * Starting time: Wed Aug 13 12:06:26 2025
  * Host name:     CHEMLAB02
  * Process ID:    1531958
  * Working dir.:  /home/vivek/mm-project/vivek/B97-D/f/3
  ***********************************



***************************************
The coordinates will be read from file: /home/vivek/mm-project/vivek/xtb-goat/f/F_CONF/3.xyz
***************************************


Your calculation utilizes empirical dispersion correction


Warning: RI is on but no J-basis has been assigned. Assigning Def2/J (nothing to worry about!)
================================================================================

----- Orbital basis set information -----
Your calculation utilizes the basis: 6-31G**
   H-He, Li-Ne : W. J. Hehre, R. Ditchfield and J.A. Pople, J. Chem. Phys. 56, 2257 (1972).
                 Note: He and Ne are unpublished basis sets taken from the Gaussian program.
                 Note: Li and B from J. D. Dill and J. A. Pople, J. Chem. Phys. 62, 2921 (1975).
   Na - Ar     : M. M. Francl, W. J. Pietro, W. J. Hehre, J. S. Binkley, M. S. Gordon, 
                 D. J. DeFrees and J. A. Pople, J. Chem. Phys. 77, 3654 (1982).
   K - Zn      : V. A. Rassolov, J. A. Pople, M. A. Ratner, and T. L. Windus, J. Chem. Phys. 109, 1223 (1998).

----- AuxJ basis set information -----
Your calculation utilizes the auxiliary basis: def2/J
   H-Rn: F. Weigend, Phys. Chem. Chem. Phys. 8, 1057 (2006).
   Fr-Lr: K. Eichkorn, F. Weigend, O. Treutler, R. Ahlrichs; Theor. Chem. Acc. 97, 119 (1997).

================================================================================
                                        WARNINGS
                       Please study these warnings very carefully!
================================================================================


INFO   : The exchange functional is Grimme's B97(-D)
         As described in S. Grimme, J. Comput. Chem. 27, 1787 (2006).
         Note that this functional defaults to a pure GGA. 

INFO   : The correlation functional is Grimme's B97(-D)
         As described in S. Grimme, J. Comput. Chem. 27, 1787 (2006).

================================================================================
                                       INPUT FILE
================================================================================
NAME = 3.inp
|  1> ! B97-D 6-31G** 
|  2> 
|  3> * xyzfile 0 1 /home/vivek/mm-project/vivek/xtb-goat/f/F_CONF/3.xyz
|  4> 
|  5>                          ****END OF INPUT****
================================================================================

                       ****************************
                       * Single Point Calculation *
                       ****************************

---------------------------------
CARTESIAN COORDINATES (ANGSTROEM)
---------------------------------
  C     -6.578871    1.045268   -1.328721
  C     -5.405362    0.858466   -2.038811
  C     -5.319806    1.118969    0.710338
  H     -7.445733    1.321641    0.609007
  H     -5.288472    1.221553    1.786220
  C     -4.192617    0.799519   -1.375515
  C     -2.822941    0.897514    0.728284
  H     -5.435321    0.758233   -3.114026
  C     -4.138554    0.926424    0.005555
  H     -7.526046    1.089487   -1.846107
  C     -6.533473    1.175592    0.048776
  H     -3.278714    0.659782   -1.931973
  C     -2.221875    2.320386    0.798711
  H     -2.959650    0.527563    1.745566
  H     -2.116402    0.250483    0.205078
  C     -1.018518    2.281392    1.733006
  H     -0.576168    2.108623    3.581677
  N     -1.876367    2.778368   -0.528885
  O     -1.365607    2.150518    3.017950
  H     -1.614625    3.757786   -0.511959
  O      0.126047    2.348042    1.368948
  H     -2.971996    2.993494    1.227215
  H     -1.070432    2.258737   -0.864664

----------------------------
CARTESIAN COORDINATES (A.U.)
----------------------------
  NO LB      ZA    FRAG     MASS         X           Y           Z
   0 C     6.0000    0    12.011  -12.432264    1.975270   -2.510919
   1 C     6.0000    0    12.011  -10.214654    1.622266   -3.852795
   2 C     6.0000    0    12.011  -10.052976    2.114545    1.342345
   3 H     1.0000    0     1.008  -14.070397    2.497540    1.150857
   4 H     1.0000    0     1.008   -9.993763    2.308401    3.375467
   5 C     6.0000    0    12.011   -7.922898    1.510871   -2.599346
   6 C     6.0000    0    12.011   -5.334586    1.696056    1.376258
   7 H     1.0000    0     1.008  -10.271269    1.432853   -5.884657
   8 C     6.0000    0    12.011   -7.820735    1.750687    0.010497
   9 H     1.0000    0     1.008  -14.222165    2.058832   -3.488636
  10 C     6.0000    0    12.011  -12.346474    2.221547    0.092173
  11 H     1.0000    0     1.008   -6.195872    1.246807   -3.650900
  12 C     6.0000    0    12.011   -4.198736    4.384895    1.509344
  13 H     1.0000    0     1.008   -5.592928    0.996950    3.298643
  14 H     1.0000    0     1.008   -3.999420    0.473345    0.387540
  15 C     6.0000    0    12.011   -1.924720    4.311207    3.274907
  16 H     1.0000    0     1.008   -1.088800    3.984719    6.768389
  17 N     7.0000    0    14.007   -3.545820    5.250355   -0.999449
  18 O     8.0000    0    15.999   -2.580623    4.063889    5.703098
  19 H     1.0000    0     1.008   -3.051199    7.101186   -0.967461
  20 O     8.0000    0    15.999    0.238195    4.437157    2.586937
  21 H     1.0000    0     1.008   -5.616259    5.656884    2.319099
  22 H     1.0000    0     1.008   -2.022823    4.268395   -1.633979

--------------------------------
INTERNAL COORDINATES (ANGSTROEM)
--------------------------------
 C      0   0   0     0.000000000000     0.00000000     0.00000000
 C      1   0   0     1.384284945262     0.00000000     0.00000000
 C      1   2   0     2.397590527485    89.72654269     0.00000000
 H      3   1   2     2.137969319341    55.97363414   179.99753158
 H      3   1   2     1.081215911896   149.81445782   179.95601820
 C      2   1   3     1.383541887220   120.19260436     0.12503230
 C      3   1   2     2.506730364370   121.76549138     0.70237538
 H      2   1   3     1.080292331848   119.97123309   180.12137357
 C      6   2   1     1.387940948750   120.48367877     0.00000000
 H      1   2   3     1.080177458847   120.21044408   179.98947382
 C      4   3   1     1.080467288726    34.12619773     0.00000000
 H      6   2   1     1.079069311292   120.04446015   180.36888533
 C      7   3   1     1.546223029605   107.83225420    97.80745766
 H      7   3   1     1.091061693336    84.94135147   205.69552242
 H      7   3   1     1.091600586469   133.91866762   317.44256732
 C     13   7   3     1.523974272861   108.13921881   140.47743037
 H     16  13   7     1.908692311818   141.17831977   288.76527356
 N     13   7   3     1.446248365624   110.02705183   263.67466462
 O     17  16  13     0.970956656487    41.00370810   358.07957081
 H     18  13   7     1.013930084904   110.62415765   171.37935287
 O     16  13   7     1.202917303469   124.35751121   107.15360874
 H     13   7   3     1.095157706372   108.49077897    23.02866700
 H     18  13   7     1.016019546469   109.32443746   289.13789090

---------------------------
INTERNAL COORDINATES (A.U.)
---------------------------
 C      0   0   0     0.000000000000     0.00000000     0.00000000
 C      1   0   0     2.615919437855     0.00000000     0.00000000
 C      1   2   0     4.530789478231    89.72654269     0.00000000
 H      3   1   2     4.040176496280    55.97363414   179.99753158
 H      3   1   2     2.043201965121   149.81445782   179.95601820
 C      2   1   3     2.614515261655   120.19260436     0.12503230
 C      3   1   2     4.737033880243   121.76549138     0.70237538
 H      2   1   3     2.041456651769   119.97123309   180.12137357
 C      6   2   1     2.622828283192   120.48367877     0.00000000
 H      1   2   3     2.041239573256   120.21044408   179.98947382
 C      4   3   1     2.041787272353    34.12619773     0.00000000
 H      6   2   1     2.039145477860   120.04446015   180.36888533
 C      7   3   1     2.921938067915   107.83225420    97.80745766
 H      7   3   1     2.061807795617    84.94135147   205.69552242
 H      7   3   1     2.062826156053   133.91866762   317.44256732
 C     13   7   3     2.879894010849   108.13921881   140.47743037
 H     16  13   7     3.606905743256   141.17831977   288.76527356
 N     13   7   3     2.733013332661   110.02705183   263.67466462
 O     17  16  13     1.834842168669    41.00370810   358.07957081
 H     18  13   7     1.916050179412   110.62415765   171.37935287
 O     16  13   7     2.273184265311   124.35751121   107.15360874
 H     13   7   3     2.069548138496   108.49077897    23.02866700
 H     18  13   7     1.919998689537   109.32443746   289.13789090

---------------------
BASIS SET INFORMATION
---------------------
There are 4 groups of distinct atoms

 Group   1 Type C   : 10s4p1d contracted to 3s2p1d pattern {631/31/1}
 Group   2 Type H   : 4s1p contracted to 2s1p pattern {31/1}
 Group   3 Type N   : 10s4p1d contracted to 3s2p1d pattern {631/31/1}
 Group   4 Type O   : 10s4p1d contracted to 3s2p1d pattern {631/31/1}

Atom   0C    basis set group =>   1
Atom   1C    basis set group =>   1
Atom   2C    basis set group =>   1
Atom   3H    basis set group =>   2
Atom   4H    basis set group =>   2
Atom   5C    basis set group =>   1
Atom   6C    basis set group =>   1
Atom   7H    basis set group =>   2
Atom   8C    basis set group =>   1
Atom   9H    basis set group =>   2
Atom  10C    basis set group =>   1
Atom  11H    basis set group =>   2
Atom  12C    basis set group =>   1
Atom  13H    basis set group =>   2
Atom  14H    basis set group =>   2
Atom  15C    basis set group =>   1
Atom  16H    basis set group =>   2
Atom  17N    basis set group =>   3
Atom  18O    basis set group =>   4
Atom  19H    basis set group =>   2
Atom  20O    basis set group =>   4
Atom  21H    basis set group =>   2
Atom  22H    basis set group =>   2
---------------------------------
AUXILIARY/J BASIS SET INFORMATION
---------------------------------
There are 4 groups of distinct atoms

 Group   1 Type C   : 12s5p4d2f1g contracted to 6s4p3d1f1g pattern {711111/2111/211/2/1}
 Group   2 Type H   : 5s2p1d contracted to 3s1p1d pattern {311/2/1}
 Group   3 Type N   : 12s5p4d2f1g contracted to 6s4p3d1f1g pattern {711111/2111/211/2/1}
 Group   4 Type O   : 12s5p4d2f1g contracted to 6s4p3d1f1g pattern {711111/2111/211/2/1}

Atom   0C    basis set group =>   1
Atom   1C    basis set group =>   1
Atom   2C    basis set group =>   1
Atom   3H    basis set group =>   2
Atom   4H    basis set group =>   2
Atom   5C    basis set group =>   1
Atom   6C    basis set group =>   1
Atom   7H    basis set group =>   2
Atom   8C    basis set group =>   1
Atom   9H    basis set group =>   2
Atom  10C    basis set group =>   1
Atom  11H    basis set group =>   2
Atom  12C    basis set group =>   1
Atom  13H    basis set group =>   2
Atom  14H    basis set group =>   2
Atom  15C    basis set group =>   1
Atom  16H    basis set group =>   2
Atom  17N    basis set group =>   3
Atom  18O    basis set group =>   4
Atom  19H    basis set group =>   2
Atom  20O    basis set group =>   4
Atom  21H    basis set group =>   2
Atom  22H    basis set group =>   2
------------------------------------------------------------------------------
                             ORCA STARTUP CALCULATIONS
                           -- RI-GTO INTEGRALS CHOSEN --
------------------------------------------------------------------------------
------------------------------------------------------------------------------
                   ___                                                        
                  /   \      - P O W E R E D   B Y -                         
                 /     \                                                     
                 |  |  |   _    _      __       _____    __    __             
                 |  |  |  | |  | |    /  \     |  _  \  |  |  /  |          
                  \  \/   | |  | |   /    \    | | | |  |  | /  /          
                 / \  \   | |__| |  /  /\  \   | |_| |  |  |/  /          
                |  |  |   |  __  | /  /__\  \  |    /   |      \           
                |  |  |   | |  | | |   __   |  |    \   |  |\   \          
                \     /   | |  | | |  |  |  |  | |\  \  |  | \   \       
                 \___/    |_|  |_| |__|  |__|  |_| \__\ |__|  \__/        
                                                                              
                      - O R C A' S   B I G   F R I E N D -                    
                                      &                                       
                       - I N T E G R A L  F E E D E R -                       
                                                                              
 v1 FN, 2020, v2 2021, v3 2022-2024                                           
------------------------------------------------------------------------------


----------------------
SHARK INTEGRAL PACKAGE
----------------------

Number of atoms                             ...     23
Number of basis functions                   ...    223
Number of shells                            ...    105
Maximum angular momentum                    ...      2
Integral batch strategy                     ... SHARK/LIBINT Hybrid
RI-J (if used) integral strategy            ... SPLIT-RIJ (Revised 2003 algorithm where possible)
Printlevel                                  ...      1
Contraction scheme used                     ... SEGMENTED contraction
Prescreening option                         ... SCHWARTZ
   Thresh                                   ... 1.000e-10
   Tcut                                     ... 1.000e-11
   Tpresel                                  ... 1.000e-11 
Coulomb Range Separation                    ... NOT USED
Exchange Range Separation                   ... NOT USED
Multipole approximations                    ... NOT USED
Finite Nucleus Model                        ... NOT USED
CABS basis                                  ... NOT available
Auxiliary Coulomb fitting basis             ... AVAILABLE
   # of basis functions in Aux-J            ...    709
   # of shells in Aux-J                     ...    235
   Maximum angular momentum in Aux-J        ...      4
Auxiliary J/K fitting basis                 ... NOT available
Auxiliary Correlation fitting basis         ... NOT available
Auxiliary 'external' fitting basis          ... NOT available

Checking pre-screening integrals            ... done (  0.0 sec) Dimension = 105
   => SHARK Basis and OBASIS are compatible. Storing Pre-screening
Shell pair information
Shell pair cut-off parameter TPreSel        ...   1.0e-11
Total number of shell pairs                 ...      5565
Shell pairs after pre-screening             ...      4586
Total number of primitive shell pairs       ...     28015
Primitive shell pairs kept                  ...     14549
          la=0 lb=0:   1413 shell pairs
          la=1 lb=0:   1678 shell pairs
          la=1 lb=1:    533 shell pairs
          la=2 lb=0:    558 shell pairs
          la=2 lb=1:    342 shell pairs
          la=2 lb=2:     62 shell pairs

Checking whether 4 symmetric matrices of dimension 223 fit in memory
:Max Core in MB      =   4096.00
 MB in use           =      9.63
 MB left             =   4086.37
 MB needed           =      0.76
 Data fit in memory  = YES
Calculating RI/J V-Matrix + Cholesky decomp.... done (  0.0 sec)
Calculating Nuclear repulsion               ... done (  0.0 sec) ENN=    672.485355895184 Eh

Diagonalization of the overlap matrix:
Smallest eigenvalue                        ... 4.359e-04
Time for diagonalization                   ...    0.003 sec
Threshold for overlap eigenvalues          ... 1.000e-07
Number of eigenvalues below threshold      ... 0
Time for construction of square roots      ...    0.001 sec
Total time needed                          ...    0.004 sec

-------------------
DFT GRID GENERATION
-------------------

General Integration Accuracy     IntAcc      ... 4.388
Radial Grid Type                 RadialGrid  ... OptM3 with GC (2021)
Angular Grid (max. ang.)         AngularGrid ... 4 (Lebedev-302)
Angular grid pruning method      GridPruning ... 4 (adaptive)
Weight generation scheme         WeightScheme... mBecke (2022)
Basis function cutoff            BFCut       ... 1.0000e-10
Integration weight cutoff        WCut        ... 1.0000e-14
Partially contracted basis set               ... off
Rotationally invariant grid construction     ... off
Angular grids for H and He will be reduced by one unit

Total number of grid points                  ...   107229
Total number of batches                      ...     1687
Average number of points per batch           ...       63
Average number of grid points per atom       ...     4662
Grids setup in   0.5 sec
Initializing property integral containers    ... done (  0.0 sec)

SHARK setup successfully completed in   0.6 seconds

Maximum memory used throughout the entire STARTUP-calculation: 45.3 MB
-------------------------------------------------------------------------------
                                 ORCA GUESS
                   Start orbitals & Density for SCF / CASSCF
-------------------------------------------------------------------------------

------------
SCF SETTINGS
------------
Hamiltonian:
 Density Functional     Method          .... DFT(GTOs)
 Exchange Functional    Exchange        .... B97(D)
 Correlation Functional Correlation     .... B97(D)
 Gradients option       PostSCFGGA      .... off
 RI-approximation to the Coulomb term is turned on
   Number of AuxJ basis functions       .... 709


General Settings:
 Integral files         IntName         .... 3
 Hartree-Fock type      HFTyp           .... RHF
 Total Charge           Charge          ....    0
 Multiplicity           Mult            ....    1
 Number of Electrons    NEL             ....   88
 Basis Dimension        Dim             ....  223
 Nuclear Repulsion      ENuc            ....    672.4853558952 Eh

Convergence Acceleration:
 AO-DIIS                CNVDIIS         .... on
   Start iteration      DIISMaxIt       ....    12
   Startup error        DIISStart       ....  0.200000
   # of expansion vecs  DIISMaxEq       ....     5
   Bias factor          DIISBfac        ....   1.050
   Max. coefficient     DIISMaxC        ....  10.000
 MO-DIIS                CNVKDIIS        .... off
 Trust-Rad. Augm. Hess. CNVTRAH         .... auto
   Auto Start mean grad. ratio tolernc. ....  1.125000
   Auto Start start iteration           ....    50
   Auto Start num. interpolation iter.  ....    10
   Max. Number of Micro iterations      ....    24
   Max. Number of Macro iterations      .... Maxiter - #DIIS iter
   Number of Davidson start vectors     ....     2
   Converg. threshold    (grad. norm)   ....   5.000e-05
   Grad. Scal. Fac. for Micro threshold ....   0.100
   Minimum threshold for Micro iter.    ....   1.000e-02
   NR start threshold (gradient norm)   ....   1.000e-04
   Initial trust radius                 ....   0.400
   Minimum AH scaling param. (alpha)    ....   1.000
   Maximum AH scaling param. (alpha)    .... 1000.000
   Quad. conv. algorithm                .... NR
   White noise on init. David. guess    .... on
   Maximum white noise                  ....   0.010
   Pseudo random numbers                .... off
   Inactive MOs                         .... canonical
   Orbital update algorithm             .... Taylor
   Preconditioner                       .... Diag
   Full preconditioner red. dimension   ....   250
 SOSCF                 CNVSOSCF           .... on
   Start iteration     SOSCFMaxIt         ....   150
   Startup grad/error  SOSCFStart         ....  0.003300
   Hessian update      SOSCFHessUp        .... L-BFGS
   Autom. constraints  SOSCFAutoConstrain .... off
 Level Shifting         CNVShift        .... on
   Level shift para.    LevelShift      ....    0.2500
   Turn off err/grad.   ShiftErr        ....    0.0010
 Zerner damping         CNVZerner       .... off
 Static damping         CNVDamp         .... on
   Fraction old density DampFac         ....    0.7000
   Max. Damping (<1)    DampMax         ....    0.9800
   Min. Damping (>=0)   DampMin         ....    0.0000
   Turn off err/grad.   DampErr         ....    0.1000

SCF Procedure:
 Maximum # iterations   MaxIter         ....   125
 SCF integral mode      SCFMode         .... Direct
   Integral package                     .... SHARK and LIBINT hybrid scheme
 Reset frequency        DirectResetFreq ....    20
 Integral Threshold     Thresh          ....  1.000e-10 Eh
 Primitive CutOff       TCut            ....  1.000e-11 Eh

Convergence Tolerance:
 Convergence Check Mode ConvCheckMode   .... Total+1el-Energy
 Convergence forced     ConvForced      .... 0
 Energy Change          TolE            ....  1.000e-06 Eh
 1-El. energy change                    ....  1.000e-03 Eh
 Orbital Gradient       TolG            ....  5.000e-05
 Orbital Rotation angle TolX            ....  5.000e-05
 DIIS Error             TolErr          ....  1.000e-06

------------------------------
INITIAL GUESS: MODEL POTENTIAL
------------------------------
Loading Hartree-Fock densities                     ... done
Calculating cut-offs                               ... done
Initializing the effective Hamiltonian             ... done
Setting up the integral package (SHARK)            ... done
Starting the Coulomb interaction                   ... done (   0.1 sec)
Making the grid                                    ... done (   0.1 sec)
Mapping shells                                     ... done
Starting the XC term evaluation                    ... done (   0.1 sec)
  promolecular density results
     # of electrons  =     87.992382128
     EX              =    -71.440629077
     EC              =     -3.852658808
     EX+EC           =    -75.293287885
Transforming the Hamiltonian                       ... done (   0.0 sec)
Diagonalizing the Hamiltonian                      ... done (   0.0 sec)
Back transforming the eigenvectors                 ... done (   0.0 sec)
Now organizing SCF variables                       ... done
                      ------------------
                      INITIAL GUESS DONE (   0.4 sec)
                      ------------------
             **** ENERGY FILE WAS UPDATED (3.en.tmp) ****
Finished Guess after   0.4 sec
Maximum memory used throughout the entire GUESS-calculation: 15.7 MB

-------------------------------------------------------------------------------------------
                                      ORCA LEAN-SCF
                              memory conserving SCF solver
-------------------------------------------------------------------------------------------

----------------------------------------D-I-I-S--------------------------------------------
Iteration    Energy (Eh)           Delta-E    RMSDP     MaxDP     DIISErr   Damp  Time(sec)
-------------------------------------------------------------------------------------------
               ***  Starting incremental Fock matrix formation  ***
    1    -554.0265681334278725     0.00e+00  3.13e-03  1.11e-01  2.61e-01  0.700   0.7
    2    -554.2042197235321055    -1.78e-01  2.06e-03  5.95e-02  9.51e-02  0.700   0.7
                               ***Turning on AO-DIIS***
    3    -554.2616342152116431    -5.74e-02  8.01e-04  1.71e-02  2.69e-02  0.700   0.6
    4    -554.2985494014224059    -3.69e-02  1.13e-03  2.09e-02  1.54e-02  0.000   0.6
    5    -554.3828233380913844    -8.43e-02  3.60e-04  9.80e-03  7.96e-03  0.000   0.6
    6    -554.3836377887084836    -8.14e-04  1.33e-04  3.05e-03  3.50e-03  0.000   0.6
                              *** Initializing SOSCF ***
---------------------------------------S-O-S-C-F--------------------------------------
Iteration    Energy (Eh)           Delta-E    RMSDP     MaxDP     MaxGrad    Time(sec)
--------------------------------------------------------------------------------------
    7    -554.3837036819409150    -6.59e-05  4.39e-05  9.92e-04  1.43e-03     0.6
               *** Restarting incremental Fock matrix formation ***
    8    -554.3837120799357763    -8.40e-06  2.74e-05  6.28e-04  9.65e-05     0.7
    9    -554.3837120060418329     7.39e-08  1.26e-05  3.04e-04  1.25e-04     0.5
                 **** Energy Check signals convergence ****

               *****************************************************
               *                     SUCCESS                       *
               *           SCF CONVERGED AFTER   9 CYCLES          *
               *****************************************************

             **** ENERGY FILE WAS UPDATED (3.en.tmp) ****

----------------
TOTAL SCF ENERGY
----------------

Total Energy       :       -554.38371277979854 Eh          -15085.54776 eV

Components:
Nuclear Repulsion  :        672.48535589518383 Eh           18299.25685 eV
Electronic Energy  :      -1226.86906867498237 Eh          -33384.80461 eV
One Electron Energy:      -2087.80106775789136 Eh          -56811.95532 eV
Two Electron Energy:        860.93199908290899 Eh           23427.15071 eV

Virial components:
Potential Energy   :      -1106.04995832838449 Eh          -30097.14948 eV
Kinetic Energy     :        551.66624554858595 Eh           15011.60172 eV
Virial Ratio       :          2.00492592623373

DFT components:
N(Alpha)           :       43.999981062291 electrons
N(Beta)            :       43.999981062291 electrons
N(Total)           :       87.999962124581 electrons
E(X)               :      -73.003527511092 Eh       
E(C)               :       -3.852664856366 Eh       
E(XC)              :      -76.856192367457 Eh       

---------------
SCF CONVERGENCE
---------------

  Last Energy change         ...   -7.3894e-08  Tolerance :   1.0000e-06
  Last MAX-Density change    ...    3.0412e-04  Tolerance :   1.0000e-05
  Last RMS-Density change    ...    1.2577e-05  Tolerance :   1.0000e-06
  Last DIIS Error            ...    1.4319e-03  Tolerance :   1.0000e-06
  Last Orbital Gradient      ...    1.2549e-04  Tolerance :   5.0000e-05
  Last Orbital Rotation      ...    2.3965e-04  Tolerance :   5.0000e-05


----------------
ORBITAL ENERGIES
----------------

  NO   OCC          E(Eh)            E(eV) 
   0   2.0000     -18.816544      -512.0242 
   1   2.0000     -18.755523      -510.3637 
   2   2.0000     -13.987702      -380.6247 
   3   2.0000     -10.028879      -272.8997 
   4   2.0000      -9.950795      -270.7749 
   5   2.0000      -9.913872      -269.7702 
   6   2.0000      -9.906075      -269.5580 
   7   2.0000      -9.899759      -269.3861 
   8   2.0000      -9.898760      -269.3590 
   9   2.0000      -9.898531      -269.3527 
  10   2.0000      -9.898168      -269.3428 
  11   2.0000      -9.895772      -269.2776 
  12   2.0000      -1.022847       -27.8331 
  13   2.0000      -0.934030       -25.4163 
  14   2.0000      -0.819004       -22.2862 
  15   2.0000      -0.774451       -21.0739 
  16   2.0000      -0.706917       -19.2362 
  17   2.0000      -0.667918       -18.1750 
  18   2.0000      -0.657502       -17.8915 
  19   2.0000      -0.601706       -16.3732 
  20   2.0000      -0.540732       -14.7141 
  21   2.0000      -0.538006       -14.6399 
  22   2.0000      -0.515858       -14.0372 
  23   2.0000      -0.466826       -12.7030 
  24   2.0000      -0.446081       -12.1385 
  25   2.0000      -0.439957       -11.9718 
  26   2.0000      -0.422249       -11.4900 
  27   2.0000      -0.405513       -11.0346 
  28   2.0000      -0.397443       -10.8150 
  29   2.0000      -0.389526       -10.5995 
  30   2.0000      -0.376181       -10.2364 
  31   2.0000      -0.362908        -9.8752 
  32   2.0000      -0.355666        -9.6782 
  33   2.0000      -0.338374        -9.2076 
  34   2.0000      -0.335242        -9.1224 
  35   2.0000      -0.318578        -8.6690 
  36   2.0000      -0.303668        -8.2632 
  37   2.0000      -0.288454        -7.8492 
  38   2.0000      -0.286405        -7.7935 
  39   2.0000      -0.275746        -7.5034 
  40   2.0000      -0.228362        -6.2141 
  41   2.0000      -0.213565        -5.8114 
  42   2.0000      -0.203428        -5.5355 
  43   2.0000      -0.194954        -5.3050 
  44   0.0000      -0.025857        -0.7036 
  45   0.0000      -0.014808        -0.4029 
  46   0.0000      -0.008278        -0.2253 
  47   0.0000       0.049845         1.3563 
  48   0.0000       0.069476         1.8905 
  49   0.0000       0.083420         2.2700 
  50   0.0000       0.097281         2.6472 
  51   0.0000       0.114983         3.1289 
  52   0.0000       0.131990         3.5916 
  53   0.0000       0.134402         3.6573 
  54   0.0000       0.148861         4.0507 
*Only the first 10 virtual orbitals were printed.

                    ********************************
                    * MULLIKEN POPULATION ANALYSIS *
                    ********************************

-----------------------
MULLIKEN ATOMIC CHARGES
-----------------------
   0 C :   -0.087792
   1 C :   -0.097684
   2 C :   -0.122789
   3 H :    0.084716
   4 H :    0.079074
   5 C :   -0.082495
   6 C :   -0.262412
   7 H :    0.085572
   8 C :    0.122327
   9 H :    0.084569
  10 C :   -0.091552
  11 H :    0.080182
  12 C :   -0.041632
  13 H :    0.125255
  14 H :    0.111119
  15 C :    0.486725
  16 H :    0.318517
  17 N :   -0.545182
  18 O :   -0.454734
  19 H :    0.245627
  20 O :   -0.416428
  21 H :    0.133685
  22 H :    0.245334
Sum of atomic charges:    0.0000000

--------------------------------
MULLIKEN REDUCED ORBITAL CHARGES
--------------------------------
  0 C s       :     3.175025  s :     3.175025
      pz      :     0.935605  p :     2.878026
      px      :     0.948775
      py      :     0.993646
      dz2     :     0.008929  d :     0.034740
      dxz     :     0.012272
      dyz     :     0.005378
      dx2y2   :     0.005011
      dxy     :     0.003151

  1 C s       :     3.180907  s :     3.180907
      pz      :     0.961663  p :     2.881929
      px      :     0.929037
      py      :     0.991228
      dz2     :     0.010657  d :     0.034849
      dxz     :     0.009942
      dyz     :     0.002306
      dx2y2   :     0.005494
      dxy     :     0.006449

  2 C s       :     3.182006  s :     3.182006
      pz      :     0.953419  p :     2.906062
      px      :     0.943619
      py      :     1.009025
      dz2     :     0.010653  d :     0.034721
      dxz     :     0.009851
      dyz     :     0.002228
      dx2y2   :     0.005528
      dxy     :     0.006461

  3 H s       :     0.902824  s :     0.902824
      pz      :     0.003554  p :     0.012460
      px      :     0.005777
      py      :     0.003130

  4 H s       :     0.908458  s :     0.908458
      pz      :     0.007140  p :     0.012468
      px      :     0.002194
      py      :     0.003135

  5 C s       :     3.176400  s :     3.176400
      pz      :     0.947489  p :     2.871348
      px      :     0.936838
      py      :     0.987021
      dz2     :     0.008969  d :     0.034747
      dxz     :     0.012274
      dyz     :     0.005143
      dx2y2   :     0.004703
      dxy     :     0.003658

  6 C s       :     3.238663  s :     3.238663
      pz      :     1.049177  p :     2.987154
      px      :     0.996521
      py      :     0.941455
      dz2     :     0.007707  d :     0.036595
      dxz     :     0.006912
      dyz     :     0.005830
      dx2y2   :     0.006753
      dxy     :     0.009392

  7 H s       :     0.901990  s :     0.901990
      pz      :     0.007166  p :     0.012438
      px      :     0.002219
      py      :     0.003053

  8 C s       :     3.128553  s :     3.128553
      pz      :     0.883158  p :     2.707573
      px      :     0.870632
      py      :     0.953784
      dz2     :     0.010656  d :     0.041547
      dxz     :     0.013226
      dyz     :     0.006191
      dx2y2   :     0.005638
      dxy     :     0.005836

  9 H s       :     0.902969  s :     0.902969
      pz      :     0.003347  p :     0.012462
      px      :     0.006041
      py      :     0.003073

 10 C s       :     3.178578  s :     3.178578
      pz      :     0.931872  p :     2.878118
      px      :     0.954136
      py      :     0.992110
      dz2     :     0.008635  d :     0.034856
      dxz     :     0.012598
      dyz     :     0.005388
      dx2y2   :     0.004692
      dxy     :     0.003544

 11 H s       :     0.907286  s :     0.907286
      pz      :     0.003514  p :     0.012532
      px      :     0.005921
      py      :     0.003097

 12 C s       :     3.200204  s :     3.200204
      pz      :     0.843358  p :     2.783829
      px      :     0.953722
      py      :     0.986749
      dz2     :     0.013710  d :     0.057599
      dxz     :     0.017160
      dyz     :     0.010375
      dx2y2   :     0.007143
      dxy     :     0.009211

 13 H s       :     0.863157  s :     0.863157
      pz      :     0.006199  p :     0.011588
      px      :     0.002427
      py      :     0.002962

 14 H s       :     0.877335  s :     0.877335
      pz      :     0.003389  p :     0.011547
      px      :     0.004103
      py      :     0.004054

 15 C s       :     2.987596  s :     2.987596
      pz      :     0.755180  p :     2.401248
      px      :     0.861597
      py      :     0.784471
      dz2     :     0.032680  d :     0.124431
      dxz     :     0.042463
      dyz     :     0.015085
      dx2y2   :     0.015404
      dxy     :     0.018799

 16 H s       :     0.643577  s :     0.643577
      pz      :     0.011686  p :     0.037906
      px      :     0.016892
      py      :     0.009328

 17 N s       :     3.583163  s :     3.583163
      pz      :     1.309222  p :     3.933619
      px      :     1.480342
      py      :     1.144054
      dz2     :     0.009235  d :     0.028401
      dxz     :     0.003744
      dyz     :     0.003457
      dx2y2   :     0.005152
      dxy     :     0.006813

 18 O s       :     3.824101  s :     3.824101
      pz      :     1.272943  p :     4.607923
      px      :     1.567079
      py      :     1.767900
      dz2     :     0.004568  d :     0.022710
      dxz     :     0.008667
      dyz     :     0.003367
      dx2y2   :     0.003925
      dxy     :     0.002184

 19 H s       :     0.730301  s :     0.730301
      pz      :     0.005704  p :     0.024072
      px      :     0.007034
      py      :     0.011333

 20 O s       :     3.855440  s :     3.855440
      pz      :     1.726898  p :     4.532894
      px      :     1.387567
      py      :     1.418428
      dz2     :     0.003442  d :     0.028095
      dxz     :     0.007418
      dyz     :     0.001131
      dx2y2   :     0.006641
      dxy     :     0.009462

 21 H s       :     0.855319  s :     0.855319
      pz      :     0.002560  p :     0.010996
      px      :     0.004600
      py      :     0.003836

 22 H s       :     0.730634  s :     0.730634
      pz      :     0.006790  p :     0.024032
      px      :     0.010626
      py      :     0.006616



                     *******************************
                     * LOEWDIN POPULATION ANALYSIS *
                     *******************************

----------------------
LOEWDIN ATOMIC CHARGES
----------------------
   0 C :   -0.076783
   1 C :   -0.072659
   2 C :   -0.080606
   3 H :    0.071085
   4 H :    0.068460
   5 C :   -0.062263
   6 C :   -0.111215
   7 H :    0.071556
   8 C :   -0.011092
   9 H :    0.071009
  10 C :   -0.074188
  11 H :    0.071460
  12 C :   -0.045390
  13 H :    0.080393
  14 H :    0.075740
  15 C :    0.099919
  16 H :    0.182227
  17 N :   -0.236930
  18 O :   -0.140810
  19 H :    0.128889
  20 O :   -0.221977
  21 H :    0.086342
  22 H :    0.126832

-------------------------------
LOEWDIN REDUCED ORBITAL CHARGES
-------------------------------
  0 C s       :     2.895703  s :     2.895703
      pz      :     1.059638  p :     3.094712
      px      :     1.052269
      py      :     0.982805
      dz2     :     0.025203  d :     0.086368
      dxz     :     0.032347
      dyz     :     0.011933
      dx2y2   :     0.010575
      dxy     :     0.006311

  1 C s       :     2.895753  s :     2.895753
      pz      :     1.049397  p :     3.090295
      px      :     1.063841
      py      :     0.977057
      dz2     :     0.024783  d :     0.086612
      dxz     :     0.027943
      dyz     :     0.004048
      dx2y2   :     0.015298
      dxy     :     0.014540

  2 C s       :     2.894777  s :     2.894777
      pz      :     1.046707  p :     3.099546
      px      :     1.057003
      py      :     0.995837
      dz2     :     0.024936  d :     0.086283
      dxz     :     0.027651
      dyz     :     0.003934
      dx2y2   :     0.015486
      dxy     :     0.014276

  3 H s       :     0.888331  s :     0.888331
      pz      :     0.011617  p :     0.040584
      px      :     0.020409
      py      :     0.008558

  4 H s       :     0.890628  s :     0.890628
      pz      :     0.025931  p :     0.040912
      px      :     0.006339
      py      :     0.008642

  5 C s       :     2.894856  s :     2.894856
      pz      :     1.050778  p :     3.081261
      px      :     1.053410
      py      :     0.977073
      dz2     :     0.024859  d :     0.086146
      dxz     :     0.032725
      dyz     :     0.010927
      dx2y2   :     0.010465
      dxy     :     0.007171

  6 C s       :     2.897717  s :     2.897717
      pz      :     1.072768  p :     3.132091
      px      :     1.038210
      py      :     1.021113
      dz2     :     0.016748  d :     0.081407
      dxz     :     0.015653
      dyz     :     0.011796
      dx2y2   :     0.016098
      dxy     :     0.021113

  7 H s       :     0.887828  s :     0.887828
      pz      :     0.025939  p :     0.040616
      px      :     0.006334
      py      :     0.008343

  8 C s       :     2.871476  s :     2.871476
      pz      :     1.058651  p :     3.035290
      px      :     1.024134
      py      :     0.952505
      dz2     :     0.028920  d :     0.104326
      dxz     :     0.036929
      dyz     :     0.013367
      dx2y2   :     0.013443
      dxy     :     0.011668

  9 H s       :     0.888313  s :     0.888313
      pz      :     0.010860  p :     0.040677
      px      :     0.021518
      py      :     0.008299

 10 C s       :     2.895492  s :     2.895492
      pz      :     1.060075  p :     3.091870
      px      :     1.052930
      py      :     0.978864
      dz2     :     0.024391  d :     0.086826
      dxz     :     0.033132
      dyz     :     0.011808
      dx2y2   :     0.010312
      dxy     :     0.007183

 11 H s       :     0.887334  s :     0.887334
      pz      :     0.011664  p :     0.041207
      px      :     0.021085
      py      :     0.008458

 12 C s       :     2.883995  s :     2.883995
      pz      :     0.964959  p :     3.030294
      px      :     1.026351
      py      :     1.038984
      dz2     :     0.031556  d :     0.131101
      dxz     :     0.041245
      dyz     :     0.020889
      dx2y2   :     0.016754
      dxy     :     0.020656

 13 H s       :     0.879390  s :     0.879390
      pz      :     0.023765  p :     0.040217
      px      :     0.007177
      py      :     0.009275

 14 H s       :     0.884505  s :     0.884505
      pz      :     0.011260  p :     0.039755
      px      :     0.014612
      py      :     0.013883

 15 C s       :     2.858640  s :     2.858640
      pz      :     0.910734  p :     2.743765
      px      :     1.047374
      py      :     0.785658
      dz2     :     0.080534  d :     0.297676
      dxz     :     0.107099
      dyz     :     0.032702
      dx2y2   :     0.039139
      dxy     :     0.038202

 16 H s       :     0.702043  s :     0.702043
      pz      :     0.034607  p :     0.115729
      px      :     0.054785
      py      :     0.026337

 17 N s       :     3.192709  s :     3.192709
      pz      :     1.340883  p :     3.986339
      px      :     1.476032
      py      :     1.169424
      dz2     :     0.019666  d :     0.057882
      dxz     :     0.007486
      dyz     :     0.009423
      dx2y2   :     0.009838
      dxy     :     0.011470

 18 O s       :     3.470099  s :     3.470099
      pz      :     1.315613  p :     4.619735
      px      :     1.572050
      py      :     1.732072
      dz2     :     0.016260  d :     0.050976
      dxz     :     0.020277
      dyz     :     0.006962
      dx2y2   :     0.005630
      dxy     :     0.001847

 19 H s       :     0.792041  s :     0.792041
      pz      :     0.016478  p :     0.079070
      px      :     0.020648
      py      :     0.041944

 20 O s       :     3.554500  s :     3.554500
      pz      :     1.716886  p :     4.609367
      px      :     1.487930
      py      :     1.404552
      dz2     :     0.008200  d :     0.058111
      dxz     :     0.016312
      dyz     :     0.001661
      dx2y2   :     0.018692
      dxy     :     0.013246

 21 H s       :     0.873947  s :     0.873947
      pz      :     0.008345  p :     0.039710
      px      :     0.017179
      py      :     0.014186

 22 H s       :     0.793599  s :     0.793599
      pz      :     0.020691  p :     0.079569
      px      :     0.038452
      py      :     0.020425



                      *****************************
                      * MAYER POPULATION ANALYSIS *
                      *****************************

  NA   - Mulliken gross atomic population
  ZA   - Total nuclear charge
  QA   - Mulliken gross atomic charge
  VA   - Mayer's total valence
  BVA  - Mayer's bonded valence
  FA   - Mayer's free valence

  ATOM       NA         ZA         QA         VA         BVA        FA
  0 C      6.0878     6.0000    -0.0878     3.9473     3.9473    -0.0000
  1 C      6.0977     6.0000    -0.0977     3.9457     3.9457     0.0000
  2 C      6.1228     6.0000    -0.1228     3.9438     3.9438    -0.0000
  3 H      0.9153     1.0000     0.0847     0.9568     0.9568     0.0000
  4 H      0.9209     1.0000     0.0791     0.9595     0.9595     0.0000
  5 C      6.0825     6.0000    -0.0825     3.9531     3.9531     0.0000
  6 C      6.2624     6.0000    -0.2624     3.8712     3.8712     0.0000
  7 H      0.9144     1.0000     0.0856     0.9567     0.9567     0.0000
  8 C      5.8777     6.0000     0.1223     3.9826     3.9826    -0.0000
  9 H      0.9154     1.0000     0.0846     0.9568     0.9568     0.0000
 10 C      6.0916     6.0000    -0.0916     3.9472     3.9472    -0.0000
 11 H      0.9198     1.0000     0.0802     0.9663     0.9663     0.0000
 12 C      6.0416     6.0000    -0.0416     3.8567     3.8567     0.0000
 13 H      0.8747     1.0000     0.1253     0.9570     0.9570    -0.0000
 14 H      0.8889     1.0000     0.1111     0.9558     0.9558     0.0000
 15 C      5.5133     6.0000     0.4867     3.9519     3.9519     0.0000
 16 H      0.6815     1.0000     0.3185     0.9171     0.9171     0.0000
 17 N      7.5452     7.0000    -0.5452     2.9228     2.9228    -0.0000
 18 O      8.4547     8.0000    -0.4547     2.0305     2.0305     0.0000
 19 H      0.7544     1.0000     0.2456     0.9197     0.9197     0.0000
 20 O      8.4164     8.0000    -0.4164     2.1193     2.1193     0.0000
 21 H      0.8663     1.0000     0.1337     0.9524     0.9524     0.0000
 22 H      0.7547     1.0000     0.2453     0.9322     0.9322     0.0000

  Mayer bond orders larger than 0.100000
B(  0-C ,  1-C ) :   1.4435 B(  0-C ,  9-H ) :   0.9398 B(  0-C , 10-C ) :   1.4471 
B(  1-C ,  5-C ) :   1.4339 B(  1-C ,  7-H ) :   0.9383 B(  2-C ,  4-H ) :   0.9344 
B(  2-C ,  8-C ) :   1.4328 B(  2-C , 10-C ) :   1.4342 B(  3-H , 10-C ) :   0.9382 
B(  5-C ,  8-C ) :   1.4356 B(  5-C , 11-H ) :   0.9320 B(  6-C ,  8-C ) :   0.9932 
B(  6-C , 12-C ) :   0.9562 B(  6-C , 13-H ) :   0.9354 B(  6-C , 14-H ) :   0.9371 
B( 12-C , 15-C ) :   0.8907 B( 12-C , 17-N ) :   1.0634 B( 12-C , 21-H ) :   0.9226 
B( 15-C , 18-O ) :   1.0804 B( 15-C , 20-O ) :   1.9316 B( 16-H , 18-O ) :   0.8510 
B( 17-N , 19-H ) :   0.9082 B( 17-N , 22-H ) :   0.8979 

-------
TIMINGS
-------

Total SCF time: 0 days 0 hours 0 min 6 sec 

Total time                  ....       6.258 sec
Sum of individual times     ....       5.720 sec  ( 91.4%)

SCF preparation             ....       0.028 sec  (  0.4%)
Fock matrix formation       ....       5.619 sec  ( 89.8%)
  Startup                   ....       0.001 sec  (  0.0% of F)
  Split-RI-J                ....       2.321 sec  ( 41.3% of F)
  XC integration            ....       3.822 sec  ( 68.0% of F)
    XC Preparation          ....       0.000 sec  (  0.0% of XC)
    Basis function eval.    ....       1.296 sec  ( 33.9% of XC)
    Density eval.           ....       0.873 sec  ( 22.8% of XC)
    XC-Functional eval.     ....       0.628 sec  ( 16.4% of XC)
    XC-Potential eval.      ....       0.936 sec  ( 24.5% of XC)
Diagonalization             ....       0.000 sec  (  0.0%)
Density matrix formation    ....       0.004 sec  (  0.1%)
Total Energy calculation    ....       0.001 sec  (  0.0%)
Population analysis         ....       0.004 sec  (  0.1%)
Orbital Transformation      ....       0.009 sec  (  0.1%)
Orbital Orthonormalization  ....       0.000 sec  (  0.0%)
DIIS solution               ....       0.045 sec  (  0.7%)
SOSCF solution              ....       0.010 sec  (  0.2%)
Finished LeanSCF after   6.3 sec

Maximum memory used throughout the entire LEANSCF-calculation: 24.6 MB



-------------------------------------------------------------------------------
                          DFT DISPERSION CORRECTION                            
-------------------------------------------------------------------------------
Active option DFTDOPT                   ...         2   
Final C6-coefficient scaling factor     ...     1.250
Final VDW-radii scaling factor          ...     1.100
Damping factor alpha                    ...    20.000
-------------------------   ----------------
Dispersion correction           -0.030904830
-------------------------   ----------------


-------------------------   --------------------
FINAL SINGLE POINT ENERGY      -554.414617609973
-------------------------   --------------------


------------------------------------------------------------------------------
                              ORCA PROPERTY CALCULATIONS
------------------------------------------------------------------------------

GBWName                                 ... 3.gbw
Number of atoms                         ...     23
Number of basis functions               ...    223
Max core memory                         ...   4096 MB

Electric properties:
Dipole moment                           ... YES
Quadrupole moment                       ...  NO
Static polarizability (Dipole/Dipole)   ...  NO
Static polarizability (Dipole/Quad.)    ...  NO
Static polarizability (Quad./Quad.)     ...  NO
Static polarizability (Velocity)        ...  NO
Static hyperpolarizability              ...  NO

Atomic electric properties:
Dipole moment                           ...  NO
Quadrupole moment                       ...  NO
Static polarizability                   ...  NO

Choice of electric origin               ... Center of mass
Position of electric origin             ...    -6.245145     3.033547     0.629664

General magnetic properties:
Magnetizability                         ...  NO

EPR properties:
g-Tensor (aka g-matrix)                 ...  NO
Zero-Field splitting spin-orbit         ...  NO
Zero-field splitting spin-spin          ...  NO
Hyperfine couplings                     ...  NO (   0 nuclei)
Quadrupole couplings                    ...  NO (   0 nuclei)
Contact density                         ...  NO (   0 nuclei)

NMR properties:
Chemical shifts                         ...  NO (   0 nuclei)
Spin-rotation constants                 ...  NO (   0 nuclei)
Spin-spin couplings                     ...  NO (   0 nuclei,    0 pairs)

Choice of magnetic origin               ... GIAO
Position of magnetic origin             ...     0.000000     0.000000     0.000000

Properties with geometric perturbations:
SCF Hessian                             ...  NO
IR spectrum                             ...  NO
VCD spectrum                            ...  NO
X-ray spectroscopy properties:
SCF XES/XAS/RIXS spectra                ...  NO

SCF SOC stabilization energy            ...  NO
Diagonal Born-Oppenheimer correction    ...  NO

-------------
DIPOLE MOMENT
-------------

Method             : SCF
Type of density    : Electron Density
Multiplicity       :   1
Irrep              :   0
Energy             :  -554.3837127797985431 Eh
Basis              : AO
                                X                 Y                 Z
Electronic contribution:      3.620013024       0.718468021       3.082619595
Nuclear contribution   :     -3.600582431      -0.641291753      -2.557108453
                        -----------------------------------------
Total Dipole Moment    :      0.019430592       0.077176268       0.525511142
                        -----------------------------------------
Magnitude (a.u.)       :      0.531503231
Magnitude (Debye)      :      1.350973849



--------------------
Rotational spectrum 
--------------------
 
Rotational constants in cm-1:             0.080568             0.015865             0.014106 
Rotational constants in MHz :          2415.363942           475.631956           422.901058 

Dipole components along the rotational axes: 
x,y,z [a.u.] :     0.275421     0.448943     0.071338 
x,y,z [Debye]:     0.700065     1.141122     0.181327 

 

Dipole moment calculation done in   0.0 sec 

Maximum memory used throughout the entire PROP-calculation: 14.4 MB

--------------------------------
SUGGESTED CITATIONS FOR THIS RUN
--------------------------------

Below you find a list of papers that are relevant to this ORCA run
We neither can nor want to force you to cite these papers, but we appreciate if you do
You receive ORCA, which is the product of decades of hard work by many enthusiastic individuals, for free
The only thing we kindly ask in return is that you cite our papers,
We deeply appreciate it, if you show your appreciation for ORCA by not just citing the generic ORCA reference.

Please note that relegating all ORCA citations to the supporting information does *not* help us.
SI sections are not indexed - citations you put there will not count into any citation statistics
But we need these citations in order to attract the funding resources that allow us to do what we are doing

Therefore, if you are a happy ORCA user, please consider citing a few of the papers listed below in the main body of your paper

In addition to the list printed below, the program has created the file 3.bibtex that contains the list in bibtex format
You can import this file easily into all common literature databanks and citation aid programs


List of essential papers. We consider these as the minimum necessary citations

  1. Neese, F.
     Software update: the ORCA program system, version 6.0
     WIRES Comput. Molec. Sci. 2025 15(1), e70019
     doi.org/10.1002/wcms.7019

List of papers to cite with high priority. The work reported in these papers was absolutely
necessary for this run to complete.
Our perspective: the developers of density functionals and basis sets usually get cited in chemistry papers
Good! But without the algorithms to do something with them, the functionals or basis sets would not do anything.
Hence, in our opinion, the algorithm design and method developments papers are equally worthy of getting cited

  1. Neese, F.
     An improvement of the resolution of the identity approximation for the formation of the Coulomb matrix
     J. Comp. Chem. 2003 24(14), 1740-1747
     doi.org/10.1002/jcc.10318
  2. Grimme, S.
     Semiempirical GGA-type density functional constructed with a long-range dispersion correction
     J.Comput.Chem. 2006 27(15), 1787-1799
     doi.org/10.1002/jcc.20495
  3. Neese, F.
     The SHARK Integral Generation and Digestion System
     J. Comp. Chem. 2022 44(3), 381
     doi.org/10.1002/jcc.26942

List of suggested additional citations. These are papers that are important in the 'surrounding' of 
of this run, or papers that preceded the highly important papers. If you like your results we are grateful for a citation.

  1. Neese, F.
     The ORCA program system
     WIRES Comput. Molec. Sci. 2012 2(1), 73-78
     doi.org/10.1002/wcms.81
  2. Neese, F.
     Software update: the ORCA program system, version 4.0
     WIRES Comput. Molec. Sci. 2018 8(1), 1-6
     doi.org/10.1002/wcms.1327
  3. Neese, F.; Wennmohs, F.; Becker, U.; Riplinger, C.
     The ORCA quantum chemistry program package
     J. Chem. Phys. 2020 152(22), 224108
     doi.org/10.1063/5.0004608
  4. Neese, F.
     Software update: The ORCA program system—Version 5.0
     WIRES Comput. Molec. Sci. 2022 12(1), e1606
     doi.org/10.1002/wcms.1606

List of optional additional citations

  1. Neese, F.
     Approximate second-order SCF convergence for spin unrestricted wavefunctions
     Chem. Phys. Lett. 2000 325(1-3), 93-98
     doi.org/10.1016/s0009-2614(00)00662-x

Timings for individual modules:

Sum of individual times          ...        7.256 sec (=   0.121 min)
Startup calculation              ...        0.566 sec (=   0.009 min)   7.8 %
SCF iterations                   ...        6.658 sec (=   0.111 min)  91.8 %
Property calculations            ...        0.033 sec (=   0.001 min)   0.5 %
                             ****ORCA TERMINATED NORMALLY****
TOTAL RUN TIME: 0 days 0 hours 0 minutes 7 seconds 296 msec
