
                                 *****************
                                 * O   R   C   A *
                                 *****************

                                            #,                                       
                                            ###                                      
                                            ####                                     
                                            #####                                    
                                            ######                                   
                                           ########,                                 
                                     ,,################,,,,,                         
                               ,,#################################,,                 
                          ,,##########################################,,             
                       ,#########################################, ''#####,          
                    ,#############################################,,   '####,        
                  ,##################################################,,,,####,       
                ,###########''''           ''''###############################       
              ,#####''   ,,,,##########,,,,          '''####'''          '####       
            ,##' ,,,,###########################,,,                        '##       
           ' ,,###''''                  '''############,,,                           
         ,,##''                                '''############,,,,        ,,,,,,###''
      ,#''                                            '''#######################'''  
     '                                                          ''''####''''         
             ,#######,   #######,   ,#######,      ##                                
            ,#'     '#,  ##    ##  ,#'     '#,    #''#        ,####,    ,#,          
            ##       ##  ##   ,#'  ##            #'  '#       #'       ,# #          
            ##       ##  #######   ##           ,######,      #####,      #          
            '#,     ,#'  ##    ##  '#,     ,#' ,#      #,     #,   #      #          
             '#######'   ##     ##  '#######'  #'      '#     '####' #    #          



                #########################################################
                #                        -***-                          #
                #          Department of theory and spectroscopy        #
                #                                                       #
                #                      Frank Neese                      #
                #                                                       #
                #     Directorship, Architecture, Infrastructure        #
                #                    SHARK, DRIVERS                     #
                #        Core code/Algorithms in most modules           #
                #                                                       #
                #        Max Planck Institute fuer Kohlenforschung      #
                #                Kaiser Wilhelm Platz 1                 #
                #                 D-45470 Muelheim/Ruhr                 #
                #                      Germany                          #
                #                                                       #
                #                  All rights reserved                  #
                #                        -***-                          #
                #########################################################


                         Program Version 6.1.0  -  RELEASE   -
                                (GIT: $679e74b$)
                          ($2025-06-10 18:02:51 +0200$)


 With contributions from (in alphabetic order):
[Max-Planck-Institut fuer Kohlenforschung]                               
  Daniel Aravena         : Magnetic Suceptibility                        
  Michael Atanasov       : Ab Initio Ligand Field Theory (pilot matlab implementation)
  Alexander A. Auer      : GIAO ZORA, VPT2 properties, NMR spectrum      
  Ute Becker             : All parallelization in ORCA, NUMFREQ, NUMCALC 
  Giovanni Bistoni       : ED, misc. LED, open-shell LED, HFLD           
  Dmytro Bykov           : pre 5.0 version of the SCF Hessian            
  Marcos Casanova-Páez   : Triplet and SCS-CIS(D). UHF-(DLPNO)-IP/EA/STEOM-CCSD. UHF-CVS-IP/STEOM-CCSD   
  Vijay G. Chilkuri      : MRCI spin determinant printing, contributions to CSF-ICE 
  Pauline Colinet        : FMM embedding                                 
  Dipayan Datta          : RHF DLPNO-CCSD density                        
  Achintya Kumar Dutta   : EOM-CC, STEOM-CC                              
  Nicolas Foglia         : Exact transition moments, OPA infrastructure, MCD improvements    
  Dmitry Ganyushin       : Spin-Orbit,Spin-Spin,Magnetic field MRCI      
  Miquel Garcia-Rates    : C-PCM and meta-GGA Hessian, CCSD/C-PCM, Gaussian charge scheme 
  Tiago L. C. Gouveia    : GS-ROHF, GS-ROCIS                             
  Yang Guo               : DLPNO-NEVPT2, F12-NEVPT2, CIM, IAO-localization        
  Andreas Hansen         : Spin unrestricted coupled pair/coupled cluster methods 
  Ingolf Harden          : AUTO-CI MPn and infrastructure                
  Benjamin Helmich-Paris : MC-RPA, TRAH-(SCF,CASSCF), AVAS, COSX integrals, SCF dyn. polar., MC-PDFT, srDFT 
  Lee Huntington         : MR-EOM, pCC                                   
  Robert Izsak           : Overlap fitted RIJCOSX, COSX-SCS-MP3, EOM     
  Riya Kayal             : Wick's Theorem for AUTO-CI, AUTO-CI UHF-CCSDT 
  Emily Kempfer          : AUTO-CI RHF CISDT and CCSDT, approximate NEVPT4
  Christian Kollmar      : KDIIS, OOCD, Brueckner-CCSD(T), CCSD density, CASPT2, CASPT2-K, improved NEVPT2 
  Axel Koslowski         : Symmetry handling                             
  Simone Kossmann        : meta-GGA functionals, TD-DFT gradient, OOMP2, (MP2 Hessian; deprecated post 5.0) 
  Lucas Lang             : DCDCAS, Hyperfine gauge corrections, ICE-SOC+SSC
  Marvin Lechner         : AUTO-CI (C++ implementation), FIC-MRCC        
  Spencer Leger          : CASSCF response                               
  Dagmar Lenk            : GEPOL surface, SMD, ORCA-2-JSON               
  Dimitrios Liakos       : Extrapolation schemes; Compound Job, Property file
  Dimitrios Manganas     : Further ROCIS development; embedding schemes. LFT, Crystal Embedding 
  Dimitrios Pantazis     : SARC Basis sets                               
  Anastasios Papadopoulos: AUTO-CI, single reference methods and gradients 
  Taras Petrenko         : pre 6.0 DFT Hessian and TD-DFT gradient,  ECA, NRVS 
  Petra Pikulova         : Analytic Raman intensities                    
  Peter Pinski           : DLPNO-MP2, DLPNO-MP2 Gradient                 
  Shashank Vittal Rao    : ES-AILFT, MagRelax                            
  Christoph Reimann      : Effective Core Potentials                     
  Marius Retegan         : Local ZFS, SOC                                
  Christoph Riplinger    : Optimizer, TS searches, QM/MM, DLPNO-CCSD(T), (RO)-DLPNO pert. Triples 
  Michael Roemelt        : Original ROCIS implementation, recursive CI coupling coefficients
  Masaaki Saitow         : Open-shell DLPNO-CCSD energy and density      
  Barbara Sandhoefer     : DKH picture change effects                    
  Yorick L. A. Schmerwitz: GMF and freeze-and-release deltaSCF, NEB S-IDPP initial path                    
  Kantharuban Sivalingam : CASSCF convergence/infrastructure, NEVPT2, NEVPT3, NEVPT4(SD), FIC-MRCI and CEPA variants
  Bernardo de Souza      : ESD, SOC TD-DFT                               
  Georgi L. Stoychev     : AutoAux, RI-MP2 NMR, DLPNO-MP2 response, X2C  
  Van Anh Tran           : RI-MP2 g-tensors                              
  Willem Van den Heuvel  : Paramagnetic NMR                              
  Zikuan Wang            : NOTCH, Electric field optimization            
  Frank Wennmohs         : Technical directorship and infrastructure     
  Hang Xu                : AUTO-CI-Response properties                   
                                                                         
[FACCTs GmbH]                                                            
  Markus Bursch, Nicolas Foglia, Miquel Garcia-Rates, Ingolf Harden, Hagen Neugebauer, Anastasios Papadopoulos, 
  Christoph Riplinger, Bernardo de Souza, Georgi L. Stoychev                                                    
                                                                 
  APM, various basis sets, CI-OPT, improved COSX, DLPNO-Multilevel,           
  DOCKER, DRACO, updates on ESD, Fragmentator, GOAT, IRC, LR-CPCM, L-BFGS, MBIS, meta-GGA TD-DFT gradient, ML-optimized integration grids, 
  MM, NACMEs, nearIR, NEB, NEB-TS, NL-DFT gradient (VV10), 2- and 3-layer-ONIOM, interface openCOSMO-RS, QMMM,   
  Crystal-QMMM, RESP, rigid body optimization, SF, symmetry and pop. for TD-DFT, various functionals, SOLVATOR                                   
                                                                         
[Other institutions]                                                     
  V. Asgeirsson          : NEB                                           
  Christoph Bannwarth    : sTDA-DFT, sTD-DFT, PBEh-3c, B97-3c, D3        
  Giovanni Bistoni       : ETS/NOCV, ADLD/ADEX, COVALED                  
  Martin Brehm           : Molecular dynamics                            
  Ronald Cardenas        : ETS/NOCV                                      
  Martina Colucci        : COVALED                                       
  Sebastian Ehlert       : rSCAN, r2SCAN, r2SCAN-3c, D4, dhf basis sets  
  Marvin Friede          : D4 for Fr, Ra, Ac-Lr                          
  Lars Goerigk           : TD-DFT with DH, B97 family of functionals     
  Stefan Grimme          : VdW corrections, initial TS optimization, DFT functionals, gCP, sTDA/sTD-DF 
  Waldemar Hujo          : DFT-NL                                        
  H. Jonsson             : NEB                                           
  Holger Kruse           : gCP                                           
  Marcel Mueller         : wB97X-3c, vDZP basis set                      
  Hagen Neugebauer       : wr2SCAN, Native XTB                           
  Gianluca Regni         : ADLD/ADEX                                     
  Tobias Risthaus        : pre 6.0 range-separated hybrid DFT and stability analysis
  Lukas Wittmann         : regularized MP2, r2SCAN double-hybrids, wr2SCAN        
                                                                         
We gratefully acknowledge several colleagues who have allowed us to      
interface, adapt or use parts of their codes:                            
  Ed Valeev, F. Pavosevic, A. Kumar             : LibInt (2-el integral package), F12 methods 
  Garnet Chan, S. Sharma, J. Yang, R. Olivares  : DMRG                   
  Ulf Ekstrom                                   : XCFun DFT Library      
  Mihaly Kallay                                 : mrcc  (arbitrary order and MRCC methods)
  Frank Weinhold                                : gennbo (NPA and NBO analysis)           
  Simon Mueller                                 : openCOSMO-RS                            
  Christopher J. Cramer and Donald G. Truhlar   : smd solvation model                     
  S Lehtola, MJT Oliveira, MAL Marques          : LibXC Library                           
  Liviu Ungur et al                             : ANISO software                          


 Your calculation uses the libint2 library for the computation of 2-el integrals
 For citations please refer to: http://libint.valeyev.net

 Your ORCA version has been built with support for libXC version: 7.0.0
 For citations please refer to: https://libxc.gitlab.io

 This ORCA versions uses:
   CBLAS   interface :  Fast vector & matrix operations
   LAPACKE interface :  Fast linear algebra routines
   SCALAPACK package :  Parallel linear algebra routines
   Shared memory     :  Shared parallel matrices
   BLAS/LAPACK       :  OpenBLAS 0.3.29  USE64BITINT DYNAMIC_ARCH NO_AFFINITY Haswell SINGLE_THREADED
        Core in use  :  Haswell
   Copyright (c) 2011-2014, The OpenBLAS Project


  ***********************************
  * Starting time: Sat Aug 30 15:33:02 2025
  * Host name:     chemlab03
  * Process ID:    79026
  * Working dir.:  /home/vivek/mm-project/vivek/xtb-goat/B97-D-opt/e/5
  ***********************************



***************************************
The coordinates will be read from file: /home/vivek/mm-project/vivek/xtb-goat/xtb-goat/e/E_CONF/5.xyz
***************************************


Your calculation utilizes empirical dispersion correction


Warning: RI is on but no J-basis has been assigned. Assigning Def2/J (nothing to worry about!)
================================================================================

----- Orbital basis set information -----
Your calculation utilizes the basis: 6-31G**
   H-He, Li-Ne : W. J. Hehre, R. Ditchfield and J.A. Pople, J. Chem. Phys. 56, 2257 (1972).
                 Note: He and Ne are unpublished basis sets taken from the Gaussian program.
                 Note: Li and B from J. D. Dill and J. A. Pople, J. Chem. Phys. 62, 2921 (1975).
   Na - Ar     : M. M. Francl, W. J. Pietro, W. J. Hehre, J. S. Binkley, M. S. Gordon, 
                 D. J. DeFrees and J. A. Pople, J. Chem. Phys. 77, 3654 (1982).
   K - Zn      : V. A. Rassolov, J. A. Pople, M. A. Ratner, and T. L. Windus, J. Chem. Phys. 109, 1223 (1998).

----- AuxJ basis set information -----
Your calculation utilizes the auxiliary basis: def2/J
   H-Rn: F. Weigend, Phys. Chem. Chem. Phys. 8, 1057 (2006).
   Fr-Lr: K. Eichkorn, F. Weigend, O. Treutler, R. Ahlrichs; Theor. Chem. Acc. 97, 119 (1997).

================================================================================
                                        WARNINGS
                       Please study these warnings very carefully!
================================================================================


WARNING: Geometry Optimization
  ===> : Switching off AutoStart
         For restart on a previous wavefunction, please use MOREAD

INFO   : The exchange functional is Grimme's B97(-D)
         As described in S. Grimme, J. Comput. Chem. 27, 1787 (2006).
         Note that this functional defaults to a pure GGA. 

INFO   : The correlation functional is Grimme's B97(-D)
         As described in S. Grimme, J. Comput. Chem. 27, 1787 (2006).

================================================================================
                                       INPUT FILE
================================================================================
NAME = 5.inp
|  1> ! B97-D 6-31G** opt
|  2> 
|  3> * xyzfile 0 1 /home/vivek/mm-project/vivek/xtb-goat/xtb-goat/e/E_CONF/5.xyz
|  4> 
|  5>                          ****END OF INPUT****
================================================================================

                       *****************************
                       * Geometry Optimization Run *
                       *****************************

Geometry optimization settings:
Update method            Update   .... BFGS
Choice of coordinates    CoordSys .... (2022) Redundant Internals
Initial Hessian          InHess   .... Almloef's Model
Max. no of cycles        MaxIter  .... 57

Convergence Tolerances:
Energy Change            TolE     ....  5.0000e-06 Eh
Max. Gradient            TolMAXG  ....  3.0000e-04 Eh/bohr
RMS Gradient             TolRMSG  ....  1.0000e-04 Eh/bohr
Max. Displacement        TolMAXD  ....  4.0000e-03 bohr
RMS Displacement         TolRMSD  ....  2.0000e-03 bohr
Strict Convergence                .... False

------------------------------------------------------------------------------
                        ORCA OPTIMIZATION COORDINATE SETUP
------------------------------------------------------------------------------

The optimization will be done in redundant internal coordinates (2022)
Making redundant internal coordinates   ...  (2022 redundants) done
Evaluating the initial hessian          ...  (Almloef) done
Evaluating the coordinates              ...  done
Calculating the B-matrix                .... done
Calculating the G-matrix                .... done
The number of degrees of freedom        ....   78

    -----------------------------------------------------------------
                    Redundant Internal Coordinates


    -----------------------------------------------------------------
         Definition                    Initial Value    Approx d2E/dq
    -----------------------------------------------------------------
      1. B(C   1,C   0)                  1.5055         0.408787   
      2. B(O   4,C   0)                  1.3412         0.669477   
      3. B(C   5,C   1)                  1.5249         0.380672   
      4. B(H   6,C   1)                  1.0922         0.357165   
      5. B(H   7,C   1)                  1.0908         0.359006   
      6. B(C   8,C   5)                  1.5388         0.361750   
      7. B(H   9,C   5)                  1.0916         0.358032   
      8. B(H  10,C   5)                  1.0900         0.360156   
      9. B(C  11,C   8)                  1.5237         0.382282   
     10. B(O  12,C  11)                  1.2037         1.109346   
     11. B(N  13,C   8)                  1.4507         0.447751   
     12. B(N  13,H   3)                  1.0166         0.422316   
     13. B(N  13,H   2)                  1.0142         0.426159   
     14. B(H  14,O   4)                  0.9702         0.500885   
     15. B(O  15,C  11)                  1.3340         0.687477   
     16. B(H  16,C   8)                  1.0945         0.354177   
     17. B(O  17,C   0)                  1.2010         1.120366   
     18. B(H  18,O  15)                  0.9709         0.499500   
     19. A(O   4,C   0,O  17)          122.2133         0.483852   
     20. A(C   1,C   0,O  17)          126.5746         0.445067   
     21. A(C   1,C   0,O   4)          111.2120         0.405896   
     22. A(C   0,C   1,H   6)          107.6867         0.328721   
     23. A(C   0,C   1,H   7)          107.8362         0.329000   
     24. A(C   5,C   1,H   7)          111.1532         0.325161   
     25. A(H   6,C   1,H   7)          107.9935         0.290327   
     26. A(C   0,C   1,C   5)          112.7946         0.370197   
     27. A(C   5,C   1,H   6)          109.2077         0.324886   
     28. A(C   0,O   4,H  14)          110.3893         0.372635   
     29. A(C   8,C   5,H  10)          108.6541         0.322620   
     30. A(C   1,C   5,H  10)          110.1606         0.325332   
     31. A(C   8,C   5,H   9)          109.0134         0.322308   
     32. A(H   9,C   5,H  10)          109.1554         0.290584   
     33. A(C   1,C   5,H   9)          109.2065         0.325015   
     34. A(C   1,C   5,C   8)          110.6230         0.362524   
     35. A(C   5,C   8,C  11)          108.9701         0.362786   
     36. A(N  13,C   8,H  16)          109.2702         0.331238   
     37. A(C  11,C   8,H  16)          108.2106         0.324663   
     38. A(C   5,C   8,H  16)          108.1332         0.321737   
     39. A(C  11,C   8,N  13)          112.2285         0.373962   
     40. A(C   5,C   8,N  13)          109.9283         0.370424   
     41. A(C   8,C  11,O  12)          124.0733         0.438922   
     42. A(O  12,C  11,O  15)          122.9698         0.485342   
     43. A(C   8,C  11,O  15)          112.9556         0.403005   
     44. A(H   3,N  13,C   8)          109.1928         0.338142   
     45. A(H   2,N  13,C   8)          110.2007         0.338653   
     46. A(H   2,N  13,H   3)          106.7195         0.301347   
     47. A(C  11,O  15,H  18)          110.6773         0.374165   
     48. D(C   5,C   1,C   0,O  17)     -4.0918         0.012379   
     49. D(H   6,C   1,C   0,O  17)    116.4777         0.012379   
     50. D(H   6,C   1,C   0,O   4)    -63.6378         0.012379   
     51. D(H   7,C   1,C   0,O   4)     52.6711         0.012379   
     52. D(C   5,C   1,C   0,O   4)    175.7927         0.012379   
     53. D(H  14,O   4,C   0,O  17)     -0.7887         0.033290   
     54. D(H  14,O   4,C   0,C   1)    179.3209         0.033290   
     55. D(H   9,C   5,C   1,H   7)    -45.8000         0.011547   
     56. D(H   9,C   5,C   1,H   6)     73.2489         0.011547   
     57. D(H   9,C   5,C   1,C   0)   -167.0558         0.011547   
     58. D(C   8,C   5,C   1,H   7)   -165.7811         0.011547   
     59. D(C   8,C   5,C   1,H   6)    -46.7322         0.011547   
     60. D(C   8,C   5,C   1,C   0)     72.9631         0.011547   
     61. D(C  11,C   8,C   5,H   9)     60.6902         0.010492   
     62. D(C  11,C   8,C   5,C   1)   -179.2130         0.010492   
     63. D(N  13,C   8,C   5,H  10)    178.4561         0.010492   
     64. D(N  13,C   8,C   5,H   9)    -62.6860         0.010492   
     65. D(N  13,C   8,C   5,C   1)     57.4108         0.010492   
     66. D(C  11,C   8,C   5,H  10)    -58.1678         0.010492   
     67. D(O  15,C  11,C   8,N  13)   -172.4521         0.010897   
     68. D(O  15,C  11,C   8,C   5)     65.5536         0.010897   
     69. D(O  12,C  11,C   8,H  16)    128.6107         0.010897   
     70. D(O  12,C  11,C   8,N  13)      7.9624         0.010897   
     71. D(O  12,C  11,C   8,C   5)   -114.0318         0.010897   
     72. D(H   3,N  13,C   8,C  11)    -50.7251         0.017100   
     73. D(H   3,N  13,C   8,C   5)     70.7218         0.017100   
     74. D(H   2,N  13,C   8,H  16)    -53.8446         0.017100   
     75. D(H   2,N  13,C   8,C  11)     66.1895         0.017100   
     76. D(H   2,N  13,C   8,C   5)   -172.3636         0.017100   
     77. D(H  18,O  15,C  11,O  12)     -0.1386         0.035273   
     78. D(H  18,O  15,C  11,C   8)   -179.7293         0.035273   
    -----------------------------------------------------------------

Number of atoms                         .... 19
Number of degrees of freedom            .... 78


         *************************************************************
         *                GEOMETRY OPTIMIZATION CYCLE   1            *
         *************************************************************
---------------------------------
CARTESIAN COORDINATES (ANGSTROEM)
---------------------------------
  C     -2.790376   -0.076330   -1.320696
  C     -2.869699    0.518281    0.060108
  H     -0.175107    3.171680   -0.045886
  H     -0.912335    2.885846    1.378901
  O     -3.954189    0.056632   -1.973898
  C     -1.598513    0.296727    0.872665
  H     -3.043405    1.590970   -0.050007
  H     -3.737193    0.086084    0.560674
  C     -0.461380    1.195380    0.355828
  H     -1.794617    0.537760    1.919072
  H     -1.281827   -0.743573    0.798555
  C      0.792871    0.930059    1.179361
  O      1.302775    1.738531    1.911019
  N     -0.868147    2.586897    0.408237
  H     -3.886577   -0.320601   -2.865166
  O      1.271806   -0.304074    1.014959
  H     -0.253669    0.918629   -0.682549
  O     -1.835750   -0.611125   -1.815835
  H      2.066358   -0.438450    1.556555

----------------------------
CARTESIAN COORDINATES (A.U.)
----------------------------
  NO LB      ZA    FRAG     MASS         X           Y           Z
   0 C     6.0000    0    12.011   -5.273047   -0.144243   -2.495753
   1 C     6.0000    0    12.011   -5.422946    0.979409    0.113587
   2 H     1.0000    0     1.008   -0.330905    5.993606   -0.086713
   3 H     1.0000    0     1.008   -1.724063    5.453458    2.605745
   4 O     8.0000    0    15.999   -7.472335    0.107018   -3.730127
   5 C     6.0000    0    12.011   -3.020752    0.560733    1.649099
   6 H     1.0000    0     1.008   -5.751201    3.006498   -0.094499
   7 H     1.0000    0     1.008   -7.062271    0.162676    1.059520
   8 C     6.0000    0    12.011   -0.871882    2.258941    0.672418
   9 H     1.0000    0     1.008   -3.391334    1.016220    3.626520
  10 H     1.0000    0     1.008   -2.422303   -1.405149    1.509050
  11 C     6.0000    0    12.011    1.498308    1.757558    2.228670
  12 O     8.0000    0    15.999    2.461887    3.285348    3.611302
  13 N     7.0000    0    14.007   -1.640560    4.888526    0.771457
  14 H     1.0000    0     1.008   -7.344565   -0.605849   -5.414378
  15 O     8.0000    0    15.999    2.403365   -0.574616    1.917994
  16 H     1.0000    0     1.008   -0.479365    1.735958   -1.289831
  17 O     8.0000    0    15.999   -3.469065   -1.154859   -3.431432
  18 H     1.0000    0     1.008    3.904850   -0.828550    2.941463

--------------------------------
INTERNAL COORDINATES (ANGSTROEM)
--------------------------------
 C      0   0   0     0.000000000000     0.00000000     0.00000000
 C      1   0   0     1.505480608177     0.00000000     0.00000000
 H      2   1   0     3.783197820740   102.34448005     0.00000000
 H      3   2   1     1.629486016839    61.98061181   186.42983743
 O      1   2   3     1.341198338028   111.21197946   239.84189919
 C      2   1   3     1.524877177455   112.79462150   295.95084364
 H      2   1   3     1.092227598350   107.68667421    56.52028328
 H      2   1   3     1.090827918420   107.83619976   172.82916574
 C      6   2   1     1.538755368011   110.62300583    72.96310054
 H      6   2   1     1.091567543510   109.20652949   192.94418079
 H      6   2   1     1.089957391283   110.16056878   312.81545341
 C      9   6   2     1.523728152254   108.97013839   180.78701085
 O     12   9   6     1.203724044647   124.07331912   245.96818280
 N      3   2   1     1.014151649181    25.35133226   189.80016377
 H      5   1   2     0.970171863900   110.38931769   179.32094949
 O     12   9   6     1.333975868206   112.95555592    65.55364184
 H      9   6   2     1.094514621524   108.13316391   298.19361520
 O      1   2   3     1.201033238812   126.57457110    59.95737839
 H     16  12   9     0.970925469162   110.67728796   180.27066152

---------------------------
INTERNAL COORDINATES (A.U.)
---------------------------
 C      0   0   0     0.000000000000     0.00000000     0.00000000
 C      1   0   0     2.844946049384     0.00000000     0.00000000
 H      2   1   0     7.149207791646   102.34448005     0.00000000
 H      3   2   1     3.079282310879    61.98061181   186.42983743
 O      1   2   3     2.534497550144   111.21197946   239.84189919
 C      2   1   3     2.881600253257   112.79462150   295.95084364
 H      2   1   3     2.064011036792   107.68667421    56.52028328
 H      2   1   3     2.061366025050   107.83619976   172.82916574
 C      6   2   1     2.907826232642   110.62300583    72.96310054
 H      6   2   1     2.062763713911   109.20652949   192.94418079
 H      6   2   1     2.059720967168   110.16056878   312.81545341
 C      9   6   2     2.879428910306   108.97013839   180.78701085
 O     12   9   6     2.274708785198   124.07331912   245.96818280
 N      3   2   1     1.916468875217    25.35133226   189.80016377
 H      5   1   2     1.833359125608   110.38931769   179.32094949
 O     12   9   6     2.520849060170   112.95555592    65.55364184
 H      9   6   2     2.068332884252   108.13316391   298.19361520
 O      1   2   3     2.269623899091   126.57457110    59.95737839
 H     16  12   9     1.834783233165   110.67728796   180.27066152

---------------------
BASIS SET INFORMATION
---------------------
There are 4 groups of distinct atoms

 Group   1 Type C   : 10s4p1d contracted to 3s2p1d pattern {631/31/1}
 Group   2 Type H   : 4s1p contracted to 2s1p pattern {31/1}
 Group   3 Type O   : 10s4p1d contracted to 3s2p1d pattern {631/31/1}
 Group   4 Type N   : 10s4p1d contracted to 3s2p1d pattern {631/31/1}

Atom   0C    basis set group =>   1
Atom   1C    basis set group =>   1
Atom   2H    basis set group =>   2
Atom   3H    basis set group =>   2
Atom   4O    basis set group =>   3
Atom   5C    basis set group =>   1
Atom   6H    basis set group =>   2
Atom   7H    basis set group =>   2
Atom   8C    basis set group =>   1
Atom   9H    basis set group =>   2
Atom  10H    basis set group =>   2
Atom  11C    basis set group =>   1
Atom  12O    basis set group =>   3
Atom  13N    basis set group =>   4
Atom  14H    basis set group =>   2
Atom  15O    basis set group =>   3
Atom  16H    basis set group =>   2
Atom  17O    basis set group =>   3
Atom  18H    basis set group =>   2
---------------------------------
AUXILIARY/J BASIS SET INFORMATION
---------------------------------
There are 4 groups of distinct atoms

 Group   1 Type C   : 12s5p4d2f1g contracted to 6s4p3d1f1g pattern {711111/2111/211/2/1}
 Group   2 Type H   : 5s2p1d contracted to 3s1p1d pattern {311/2/1}
 Group   3 Type O   : 12s5p4d2f1g contracted to 6s4p3d1f1g pattern {711111/2111/211/2/1}
 Group   4 Type N   : 12s5p4d2f1g contracted to 6s4p3d1f1g pattern {711111/2111/211/2/1}

Atom   0C    basis set group =>   1
Atom   1C    basis set group =>   1
Atom   2H    basis set group =>   2
Atom   3H    basis set group =>   2
Atom   4O    basis set group =>   3
Atom   5C    basis set group =>   1
Atom   6H    basis set group =>   2
Atom   7H    basis set group =>   2
Atom   8C    basis set group =>   1
Atom   9H    basis set group =>   2
Atom  10H    basis set group =>   2
Atom  11C    basis set group =>   1
Atom  12O    basis set group =>   3
Atom  13N    basis set group =>   4
Atom  14H    basis set group =>   2
Atom  15O    basis set group =>   3
Atom  16H    basis set group =>   2
Atom  17O    basis set group =>   3
Atom  18H    basis set group =>   2
------------------------------------------------------------------------------
                             ORCA STARTUP CALCULATIONS
                           -- RI-GTO INTEGRALS CHOSEN --
------------------------------------------------------------------------------
------------------------------------------------------------------------------
                   ___                                                        
                  /   \      - P O W E R E D   B Y -                         
                 /     \                                                     
                 |  |  |   _    _      __       _____    __    __             
                 |  |  |  | |  | |    /  \     |  _  \  |  |  /  |          
                  \  \/   | |  | |   /    \    | | | |  |  | /  /          
                 / \  \   | |__| |  /  /\  \   | |_| |  |  |/  /          
                |  |  |   |  __  | /  /__\  \  |    /   |      \           
                |  |  |   | |  | | |   __   |  |    \   |  |\   \          
                \     /   | |  | | |  |  |  |  | |\  \  |  | \   \       
                 \___/    |_|  |_| |__|  |__|  |_| \__\ |__|  \__/        
                                                                              
                      - O R C A' S   B I G   F R I E N D -                    
                                      &                                       
                       - I N T E G R A L  F E E D E R -                       
                                                                              
 v1 FN, 2020, v2 2021, v3 2022-2024                                           
------------------------------------------------------------------------------


----------------------
SHARK INTEGRAL PACKAGE
----------------------

Number of atoms                             ...     19
Number of basis functions                   ...    185
Number of shells                            ...     87
Maximum angular momentum                    ...      2
Integral batch strategy                     ... SHARK/LIBINT Hybrid
RI-J (if used) integral strategy            ... SPLIT-RIJ (Revised 2003 algorithm where possible)
Printlevel                                  ...      1
Contraction scheme used                     ... SEGMENTED contraction
Prescreening option                         ... SCHWARTZ
   Thresh                                   ... 2.500e-11
   Tcut                                     ... 2.500e-12
   Tpresel                                  ... 2.500e-12 
Coulomb Range Separation                    ... NOT USED
Exchange Range Separation                   ... NOT USED
Multipole approximations                    ... NOT USED
Finite Nucleus Model                        ... NOT USED
CABS basis                                  ... NOT available
Auxiliary Coulomb fitting basis             ... AVAILABLE
   # of basis functions in Aux-J            ...    589
   # of shells in Aux-J                     ...    195
   Maximum angular momentum in Aux-J        ...      4
Auxiliary J/K fitting basis                 ... NOT available
Auxiliary Correlation fitting basis         ... NOT available
Auxiliary 'external' fitting basis          ... NOT available

Checking pre-screening integrals            ... done (  0.0 sec) Dimension = 87
   => SHARK Basis and OBASIS are compatible. Storing Pre-screening
Shell pair information
Shell pair cut-off parameter TPreSel        ...   2.5e-12
Total number of shell pairs                 ...      3828
Shell pairs after pre-screening             ...      3349
Total number of primitive shell pairs       ...     19347
Primitive shell pairs kept                  ...     10982
          la=0 lb=0:   1023 shell pairs
          la=1 lb=0:   1218 shell pairs
          la=1 lb=1:    390 shell pairs
          la=2 lb=0:    414 shell pairs
          la=2 lb=1:    254 shell pairs
          la=2 lb=2:     50 shell pairs

Checking whether 4 symmetric matrices of dimension 185 fit in memory
:Max Core in MB      =   4096.00
 MB in use           =      7.97
 MB left             =   4088.03
 MB needed           =      0.53
 Data fit in memory  = YES
Calculating RI/J V-Matrix + Cholesky decomp.... done (  0.0 sec)
Calculating Nuclear repulsion               ... done (  0.0 sec) ENN=    553.069067134702 Eh

Diagonalization of the overlap matrix:
Smallest eigenvalue                        ... 2.724e-03
Time for diagonalization                   ...    0.002 sec
Threshold for overlap eigenvalues          ... 1.000e-07
Number of eigenvalues below threshold      ... 0
Time for construction of square roots      ...    0.001 sec
Total time needed                          ...    0.003 sec

-------------------
DFT GRID GENERATION
-------------------

General Integration Accuracy     IntAcc      ... 4.388
Radial Grid Type                 RadialGrid  ... OptM3 with GC (2021)
Angular Grid (max. ang.)         AngularGrid ... 4 (Lebedev-302)
Angular grid pruning method      GridPruning ... 4 (adaptive)
Weight generation scheme         WeightScheme... mBecke (2022)
Basis function cutoff            BFCut       ... 1.0000e-11
Integration weight cutoff        WCut        ... 1.0000e-14
Partially contracted basis set               ... off
Rotationally invariant grid construction     ... off
Angular grids for H and He will be reduced by one unit

Total number of grid points                  ...    89217
Total number of batches                      ...     1404
Average number of points per batch           ...       63
Average number of grid points per atom       ...     4696
Grids setup in   0.4 sec
Initializing property integral containers    ... done (  0.0 sec)

SHARK setup successfully completed in   0.4 seconds

Maximum memory used throughout the entire STARTUP-calculation: 37.4 MB
-------------------------------------------------------------------------------
                                 ORCA GUESS
                   Start orbitals & Density for SCF / CASSCF
-------------------------------------------------------------------------------

------------
SCF SETTINGS
------------
Hamiltonian:
 Density Functional     Method          .... DFT(GTOs)
 Exchange Functional    Exchange        .... B97(D)
 Correlation Functional Correlation     .... B97(D)
 Gradients option       PostSCFGGA      .... off
 RI-approximation to the Coulomb term is turned on
   Number of AuxJ basis functions       .... 589


General Settings:
 Integral files         IntName         .... 5
 Hartree-Fock type      HFTyp           .... RHF
 Total Charge           Charge          ....    0
 Multiplicity           Mult            ....    1
 Number of Electrons    NEL             ....   78
 Basis Dimension        Dim             ....  185
 Nuclear Repulsion      ENuc            ....    553.0690671347 Eh

Convergence Acceleration:
 AO-DIIS                CNVDIIS         .... on
   Start iteration      DIISMaxIt       ....    12
   Startup error        DIISStart       ....  0.200000
   # of expansion vecs  DIISMaxEq       ....     5
   Bias factor          DIISBfac        ....   1.050
   Max. coefficient     DIISMaxC        ....  10.000
 MO-DIIS                CNVKDIIS        .... off
 Trust-Rad. Augm. Hess. CNVTRAH         .... auto
   Auto Start mean grad. ratio tolernc. ....  1.125000
   Auto Start start iteration           ....    50
   Auto Start num. interpolation iter.  ....    10
   Max. Number of Micro iterations      ....    24
   Max. Number of Macro iterations      .... Maxiter - #DIIS iter
   Number of Davidson start vectors     ....     2
   Converg. threshold    (grad. norm)   ....   1.000e-05
   Grad. Scal. Fac. for Micro threshold ....   0.100
   Minimum threshold for Micro iter.    ....   1.000e-02
   NR start threshold (gradient norm)   ....   1.000e-04
   Initial trust radius                 ....   0.400
   Minimum AH scaling param. (alpha)    ....   1.000
   Maximum AH scaling param. (alpha)    .... 1000.000
   Quad. conv. algorithm                .... NR
   White noise on init. David. guess    .... on
   Maximum white noise                  ....   0.010
   Pseudo random numbers                .... off
   Inactive MOs                         .... canonical
   Orbital update algorithm             .... Taylor
   Preconditioner                       .... Diag
   Full preconditioner red. dimension   ....   250
 SOSCF                 CNVSOSCF           .... on
   Start iteration     SOSCFMaxIt         ....   150
   Startup grad/error  SOSCFStart         ....  0.003300
   Hessian update      SOSCFHessUp        .... L-BFGS
   Autom. constraints  SOSCFAutoConstrain .... off
 Level Shifting         CNVShift        .... on
   Level shift para.    LevelShift      ....    0.2500
   Turn off err/grad.   ShiftErr        ....    0.0010
 Zerner damping         CNVZerner       .... off
 Static damping         CNVDamp         .... on
   Fraction old density DampFac         ....    0.7000
   Max. Damping (<1)    DampMax         ....    0.9800
   Min. Damping (>=0)   DampMin         ....    0.0000
   Turn off err/grad.   DampErr         ....    0.1000

SCF Procedure:
 Maximum # iterations   MaxIter         ....   125
 SCF integral mode      SCFMode         .... Direct
   Integral package                     .... SHARK and LIBINT hybrid scheme
 Reset frequency        DirectResetFreq ....    20
 Integral Threshold     Thresh          ....  2.500e-11 Eh
 Primitive CutOff       TCut            ....  2.500e-12 Eh

Convergence Tolerance:
 Convergence Check Mode ConvCheckMode   .... Total+1el-Energy
 Convergence forced     ConvForced      .... 0
 Energy Change          TolE            ....  1.000e-08 Eh
 1-El. energy change                    ....  1.000e-05 Eh
 Orbital Gradient       TolG            ....  1.000e-05
 Orbital Rotation angle TolX            ....  1.000e-05
 DIIS Error             TolErr          ....  5.000e-07

------------------------------
INITIAL GUESS: MODEL POTENTIAL
------------------------------
Loading Hartree-Fock densities                     ... done
Calculating cut-offs                               ... done
Initializing the effective Hamiltonian             ... done
Setting up the integral package (SHARK)            ... done
Starting the Coulomb interaction                   ... done (   0.1 sec)
Making the grid                                    ... done (   0.1 sec)
Mapping shells                                     ... done
Starting the XC term evaluation                    ... done (   0.1 sec)
  promolecular density results
     # of electrons  =     77.996853820
     EX              =    -66.732757320
     EC              =     -3.507076359
     EX+EC           =    -70.239833679
Transforming the Hamiltonian                       ... done (   0.0 sec)
Diagonalizing the Hamiltonian                      ... done (   0.0 sec)
Back transforming the eigenvectors                 ... done (   0.0 sec)
Now organizing SCF variables                       ... done
                      ------------------
                      INITIAL GUESS DONE (   0.3 sec)
                      ------------------
             **** ENERGY FILE WAS UPDATED (5.en.tmp) ****
Finished Guess after   0.3 sec
Maximum memory used throughout the entire GUESS-calculation: 13.1 MB

-------------------------------------------------------------------------------------------
                                      ORCA LEAN-SCF
                              memory conserving SCF solver
-------------------------------------------------------------------------------------------

----------------------------------------D-I-I-S--------------------------------------------
Iteration    Energy (Eh)           Delta-E    RMSDP     MaxDP     DIISErr   Damp  Time(sec)
-------------------------------------------------------------------------------------------
               ***  Starting incremental Fock matrix formation  ***
    1    -550.8678462811183181     0.00e+00  4.05e-03  1.03e-01  2.52e-01  0.700   0.5
    2    -551.0687378717175307    -2.01e-01  2.44e-03  5.41e-02  9.73e-02  0.700   0.5
                               ***Turning on AO-DIIS***
    3    -551.1264714313033437    -5.77e-02  8.73e-04  1.73e-02  2.99e-02  0.700   0.5
    4    -551.1660062033802205    -3.95e-02  1.13e-03  2.07e-02  1.36e-02  0.000   0.5
    5    -551.2591744717242364    -9.32e-02  4.14e-04  8.85e-03  1.16e-02  0.000   0.5
                              *** Initializing SOSCF ***
---------------------------------------S-O-S-C-F--------------------------------------
Iteration    Energy (Eh)           Delta-E    RMSDP     MaxDP     MaxGrad    Time(sec)
--------------------------------------------------------------------------------------
    6    -551.2601032073343958    -9.29e-04  1.48e-04  2.77e-03  3.15e-03     0.5
               *** Restarting incremental Fock matrix formation ***
    7    -551.2601750968783563    -7.19e-05  1.22e-04  2.94e-03  7.94e-04     0.5
    8    -551.2601520204852932     2.31e-05  6.59e-05  2.22e-03  2.24e-03     0.4
    9    -551.2601849458883407    -3.29e-05  4.63e-05  9.53e-04  2.89e-04     0.4
   10    -551.2601827778455572     2.17e-06  2.58e-05  5.02e-04  3.41e-04     0.4
   11    -551.2601867852533815    -4.01e-06  9.61e-06  2.45e-04  4.89e-05     0.5
   12    -551.2601866386112306     1.47e-07  5.80e-06  1.77e-04  9.55e-05     0.4
   13    -551.2601868639303575    -2.25e-07  4.02e-06  1.47e-04  3.84e-05     0.4
   14    -551.2601868200456465     4.39e-08  2.83e-06  1.05e-04  7.39e-05     0.4
   15    -551.2601868755823489    -5.55e-08  5.97e-07  1.61e-05  3.56e-06     0.4
   16    -551.2601868733947867     2.19e-09  3.64e-07  1.14e-05  5.80e-06     0.4
                 **** Energy Check signals convergence ****

               *****************************************************
               *                     SUCCESS                       *
               *           SCF CONVERGED AFTER  16 CYCLES          *
               *****************************************************

             **** ENERGY FILE WAS UPDATED (5.en.tmp) ****

----------------
TOTAL SCF ENERGY
----------------

Total Energy       :       -551.26018687575811 Eh          -15000.55230 eV

Components:
Nuclear Repulsion  :        553.06906713470198 Eh           15049.77443 eV
Electronic Energy  :      -1104.32925401046009 Eh          -30050.32673 eV
One Electron Energy:      -1851.53694907495446 Eh          -50382.88180 eV
Two Electron Energy:        747.20769506449437 Eh           20332.55507 eV

Virial components:
Potential Energy   :      -1099.75672621175545 Eh          -29925.90192 eV
Kinetic Energy     :        548.49653933599734 Eh           14925.34963 eV
Virial Ratio       :          2.00503858701298

DFT components:
N(Alpha)           :       38.999968638592 electrons
N(Beta)            :       38.999968638592 electrons
N(Total)           :       77.999937277183 electrons
E(X)               :      -68.100134041369 Eh       
E(C)               :       -3.495167455183 Eh       
E(XC)              :      -71.595301496552 Eh       

---------------
SCF CONVERGENCE
---------------

  Last Energy change         ...   -2.1876e-09  Tolerance :   1.0000e-08
  Last MAX-Density change    ...    1.1445e-05  Tolerance :   1.0000e-07
  Last RMS-Density change    ...    3.6417e-07  Tolerance :   5.0000e-09
  Last DIIS Error            ...    3.1524e-03  Tolerance :   5.0000e-07
  Last Orbital Gradient      ...    5.8023e-06  Tolerance :   1.0000e-05
  Last Orbital Rotation      ...    5.5996e-06  Tolerance :   1.0000e-05


----------------
ORBITAL ENERGIES
----------------

  NO   OCC          E(Eh)            E(eV) 
   0   2.0000     -18.812453      -511.9129 
   1   2.0000     -18.808415      -511.8030 
   2   2.0000     -18.751865      -510.2642 
   3   2.0000     -18.751819      -510.2629 
   4   2.0000     -13.988504      -380.6465 
   5   2.0000     -10.030516      -272.9442 
   6   2.0000     -10.025614      -272.8108 
   7   2.0000      -9.943952      -270.5887 
   8   2.0000      -9.914626      -269.7907 
   9   2.0000      -9.913810      -269.7685 
  10   2.0000      -1.019769       -27.7493 
  11   2.0000      -1.017241       -27.6805 
  12   2.0000      -0.930278       -25.3141 
  13   2.0000      -0.929375       -25.2896 
  14   2.0000      -0.816811       -22.2266 
  15   2.0000      -0.720072       -19.5942 
  16   2.0000      -0.658352       -17.9147 
  17   2.0000      -0.599289       -16.3075 
  18   2.0000      -0.545041       -14.8313 
  19   2.0000      -0.520887       -14.1741 
  20   2.0000      -0.459608       -12.5066 
  21   2.0000      -0.448788       -12.2121 
  22   2.0000      -0.436857       -11.8875 
  23   2.0000      -0.419309       -11.4100 
  24   2.0000      -0.412675       -11.2295 
  25   2.0000      -0.406856       -11.0711 
  26   2.0000      -0.390228       -10.6186 
  27   2.0000      -0.374209       -10.1827 
  28   2.0000      -0.352111        -9.5814 
  29   2.0000      -0.350390        -9.5346 
  30   2.0000      -0.331199        -9.0124 
  31   2.0000      -0.320668        -8.7258 
  32   2.0000      -0.309590        -8.4244 
  33   2.0000      -0.298697        -8.1280 
  34   2.0000      -0.271876        -7.3981 
  35   2.0000      -0.270643        -7.3646 
  36   2.0000      -0.224008        -6.0956 
  37   2.0000      -0.220264        -5.9937 
  38   2.0000      -0.199571        -5.4306 
  39   0.0000      -0.013980        -0.3804 
  40   0.0000      -0.012315        -0.3351 
  41   0.0000       0.053216         1.4481 
  42   0.0000       0.058034         1.5792 
  43   0.0000       0.070434         1.9166 
  44   0.0000       0.100376         2.7314 
  45   0.0000       0.120373         3.2755 
  46   0.0000       0.137529         3.7424 
  47   0.0000       0.154175         4.1953 
  48   0.0000       0.157559         4.2874 
  49   0.0000       0.162137         4.4120 
*Only the first 10 virtual orbitals were printed.

                    ********************************
                    * MULLIKEN POPULATION ANALYSIS *
                    ********************************

-----------------------
MULLIKEN ATOMIC CHARGES
-----------------------
   0 C :    0.510995
   1 C :   -0.272571
   2 H :    0.247911
   3 H :    0.245065
   4 O :   -0.459738
   5 C :   -0.190927
   6 H :    0.169585
   7 H :    0.134168
   8 C :   -0.058409
   9 H :    0.100976
  10 H :    0.139582
  11 C :    0.482352
  12 O :   -0.419841
  13 N :   -0.556518
  14 H :    0.316561
  15 O :   -0.447055
  16 H :    0.155771
  17 O :   -0.415831
  18 H :    0.317924
Sum of atomic charges:   -0.0000000

--------------------------------
MULLIKEN REDUCED ORBITAL CHARGES
--------------------------------
  0 C s       :     2.975829  s :     2.975829
      pz      :     0.876954  p :     2.386728
      px      :     0.705765
      py      :     0.804009
      dz2     :     0.023932  d :     0.126448
      dxz     :     0.035900
      dyz     :     0.014356
      dx2y2   :     0.028863
      dxy     :     0.023396

  1 C s       :     3.239785  s :     3.239785
      pz      :     0.935076  p :     2.998501
      px      :     0.984964
      py      :     1.078461
      dz2     :     0.008868  d :     0.034286
      dxz     :     0.006956
      dyz     :     0.005288
      dx2y2   :     0.007853
      dxy     :     0.005320

  2 H s       :     0.728163  s :     0.728163
      pz      :     0.007267  p :     0.023926
      px      :     0.009580
      py      :     0.007080

  3 H s       :     0.731082  s :     0.731082
      pz      :     0.011374  p :     0.023853
      px      :     0.007451
      py      :     0.005028

  4 O s       :     3.826449  s :     3.826449
      pz      :     1.338246  p :     4.610592
      px      :     1.545178
      py      :     1.727167
      dz2     :     0.004933  d :     0.022697
      dxz     :     0.004383
      dyz     :     0.003147
      dx2y2   :     0.005532
      dxy     :     0.004702

  5 C s       :     3.232913  s :     3.232913
      pz      :     0.991512  p :     2.922247
      px      :     0.913716
      py      :     1.017018
      dz2     :     0.010220  d :     0.035767
      dxz     :     0.006996
      dyz     :     0.002857
      dx2y2   :     0.008165
      dxy     :     0.007528

  6 H s       :     0.817853  s :     0.817853
      pz      :     0.002489  p :     0.012562
      px      :     0.002711
      py      :     0.007362

  7 H s       :     0.853982  s :     0.853982
      pz      :     0.003379  p :     0.011850
      px      :     0.005170
      py      :     0.003301

  8 C s       :     3.203576  s :     3.203576
      pz      :     1.045745  p :     2.798240
      px      :     0.929251
      py      :     0.823244
      dz2     :     0.010054  d :     0.056593
      dxz     :     0.008988
      dyz     :     0.009029
      dx2y2   :     0.014029
      dxy     :     0.014493

  9 H s       :     0.887473  s :     0.887473
      pz      :     0.006254  p :     0.011551
      px      :     0.002573
      py      :     0.002723

 10 H s       :     0.848749  s :     0.848749
      pz      :     0.002562  p :     0.011669
      px      :     0.002856
      py      :     0.006251

 11 C s       :     2.985557  s :     2.985557
      pz      :     0.822178  p :     2.407262
      px      :     0.866763
      py      :     0.718321
      dz2     :     0.020406  d :     0.124830
      dxz     :     0.016812
      dyz     :     0.024449
      dx2y2   :     0.035979
      dxy     :     0.027184

 12 O s       :     3.854496  s :     3.854496
      pz      :     1.413217  p :     4.537358
      px      :     1.573211
      py      :     1.550929
      dz2     :     0.007129  d :     0.027987
      dxz     :     0.003907
      dyz     :     0.006478
      dx2y2   :     0.004659
      dxy     :     0.005813

 13 N s       :     3.586864  s :     3.586864
      pz      :     1.270331  p :     3.941362
      px      :     1.591475
      py      :     1.079556
      dz2     :     0.008343  d :     0.028292
      dxz     :     0.002419
      dyz     :     0.004750
      dx2y2   :     0.004004
      dxy     :     0.008777

 14 H s       :     0.645501  s :     0.645501
      pz      :     0.019415  p :     0.037938
      px      :     0.007383
      py      :     0.011140

 15 O s       :     3.824089  s :     3.824089
      pz      :     1.673882  p :     4.600050
      px      :     1.457088
      py      :     1.469080
      dz2     :     0.002563  d :     0.022916
      dxz     :     0.004820
      dyz     :     0.004743
      dx2y2   :     0.007062
      dxy     :     0.003728

 16 H s       :     0.832655  s :     0.832655
      pz      :     0.006637  p :     0.011574
      px      :     0.002606
      py      :     0.002331

 17 O s       :     3.861023  s :     3.861023
      pz      :     1.645453  p :     4.526782
      px      :     1.468521
      py      :     1.412808
      dz2     :     0.003953  d :     0.028026
      dxz     :     0.006595
      dyz     :     0.002839
      dx2y2   :     0.007353
      dxy     :     0.007287

 18 H s       :     0.644114  s :     0.644114
      pz      :     0.012976  p :     0.037962
      px      :     0.017428
      py      :     0.007559



                     *******************************
                     * LOEWDIN POPULATION ANALYSIS *
                     *******************************

----------------------
LOEWDIN ATOMIC CHARGES
----------------------
   0 C :    0.123162
   1 C :   -0.153996
   2 H :    0.129645
   3 H :    0.126961
   4 O :   -0.143376
   5 C :   -0.113698
   6 H :    0.104292
   7 H :    0.090999
   8 C :   -0.053369
   9 H :    0.071123
  10 H :    0.085064
  11 C :    0.100863
  12 O :   -0.225847
  13 N :   -0.244749
  14 H :    0.180640
  15 O :   -0.133746
  16 H :    0.094525
  17 O :   -0.220734
  18 H :    0.182240

-------------------------------
LOEWDIN REDUCED ORBITAL CHARGES
-------------------------------
  0 C s       :     2.846240  s :     2.846240
      pz      :     0.965949  p :     2.731061
      px      :     0.924012
      py      :     0.841099
      dz2     :     0.056764  d :     0.299537
      dxz     :     0.085699
      dyz     :     0.032707
      dx2y2   :     0.069867
      dxy     :     0.054500

  1 C s       :     2.903001  s :     2.903001
      pz      :     1.025094  p :     3.172991
      px      :     1.052240
      py      :     1.095657
      dz2     :     0.020628  d :     0.078005
      dxz     :     0.017258
      dyz     :     0.012755
      dx2y2   :     0.017351
      dxy     :     0.010013

  2 H s       :     0.791361  s :     0.791361
      pz      :     0.021207  p :     0.078994
      px      :     0.034753
      py      :     0.023035

  3 H s       :     0.793893  s :     0.793893
      pz      :     0.043198  p :     0.079146
      px      :     0.021433
      py      :     0.014515

  4 O s       :     3.472585  s :     3.472585
      pz      :     1.352060  p :     4.620773
      px      :     1.569032
      py      :     1.699681
      dz2     :     0.012483  d :     0.050018
      dxz     :     0.012497
      dyz     :     0.006753
      dx2y2   :     0.011106
      dxy     :     0.007179

  5 C s       :     2.901180  s :     2.901180
      pz      :     1.056598  p :     3.132365
      px      :     1.005801
      py      :     1.069966
      dz2     :     0.021295  d :     0.080152
      dxz     :     0.017221
      dyz     :     0.005744
      dx2y2   :     0.018167
      dxy     :     0.017725

  6 H s       :     0.851778  s :     0.851778
      pz      :     0.007461  p :     0.043930
      px      :     0.007685
      py      :     0.028784

  7 H s       :     0.868011  s :     0.868011
      pz      :     0.011179  p :     0.040990
      px      :     0.019168
      py      :     0.010643

  8 C s       :     2.880886  s :     2.880886
      pz      :     1.074603  p :     3.043433
      px      :     1.017128
      py      :     0.951703
      dz2     :     0.021901  d :     0.129050
      dxz     :     0.022210
      dyz     :     0.017949
      dx2y2   :     0.032911
      dxy     :     0.034079

  9 H s       :     0.889323  s :     0.889323
      pz      :     0.023740  p :     0.039554
      px      :     0.007699
      py      :     0.008115

 10 H s       :     0.873840  s :     0.873840
      pz      :     0.007066  p :     0.041096
      px      :     0.008827
      py      :     0.025203

 11 C s       :     2.856407  s :     2.856407
      pz      :     0.899076  p :     2.743972
      px      :     0.936781
      py      :     0.908116
      dz2     :     0.044473  d :     0.298758
      dxz     :     0.040524
      dyz     :     0.060235
      dx2y2   :     0.089980
      dxy     :     0.063546

 12 O s       :     3.554715  s :     3.554715
      pz      :     1.446697  p :     4.613202
      px      :     1.580806
      py      :     1.585700
      dz2     :     0.010284  d :     0.057930
      dxz     :     0.009713
      dyz     :     0.016347
      dx2y2   :     0.009591
      dxy     :     0.011995

 13 N s       :     3.195548  s :     3.195548
      pz      :     1.277307  p :     3.991548
      px      :     1.576075
      py      :     1.138166
      dz2     :     0.015773  d :     0.057654
      dxz     :     0.003505
      dyz     :     0.012094
      dx2y2   :     0.009497
      dxy     :     0.016785

 14 H s       :     0.703615  s :     0.703615
      pz      :     0.061489  p :     0.115745
      px      :     0.021210
      py      :     0.033046

 15 O s       :     3.468020  s :     3.468020
      pz      :     1.655160  p :     4.614362
      px      :     1.455222
      py      :     1.503981
      dz2     :     0.005264  d :     0.051364
      dxz     :     0.009538
      dyz     :     0.008688
      dx2y2   :     0.016547
      dxy     :     0.011326

 16 H s       :     0.863699  s :     0.863699
      pz      :     0.026423  p :     0.041776
      px      :     0.007746
      py      :     0.007608

 17 O s       :     3.552553  s :     3.552553
      pz      :     1.653623  p :     4.610175
      px      :     1.533116
      py      :     1.423436
      dz2     :     0.007672  d :     0.058007
      dxz     :     0.015063
      dyz     :     0.006252
      dx2y2   :     0.013272
      dxy     :     0.015748

 18 H s       :     0.702103  s :     0.702103
      pz      :     0.039846  p :     0.115657
      px      :     0.054681
      py      :     0.021130



                      *****************************
                      * MAYER POPULATION ANALYSIS *
                      *****************************

  NA   - Mulliken gross atomic population
  ZA   - Total nuclear charge
  QA   - Mulliken gross atomic charge
  VA   - Mayer's total valence
  BVA  - Mayer's bonded valence
  FA   - Mayer's free valence

  ATOM       NA         ZA         QA         VA         BVA        FA
  0 C      5.4890     6.0000     0.5110     3.9901     3.9901    -0.0000
  1 C      6.2726     6.0000    -0.2726     3.8097     3.8097     0.0000
  2 H      0.7521     1.0000     0.2479     0.9201     0.9201     0.0000
  3 H      0.7549     1.0000     0.2451     0.9308     0.9308     0.0000
  4 O      8.4597     8.0000    -0.4597     2.0377     2.0377     0.0000
  5 C      6.1909     6.0000    -0.1909     3.8673     3.8673     0.0000
  6 H      0.8304     1.0000     0.1696     0.9643     0.9643     0.0000
  7 H      0.8658     1.0000     0.1342     0.9518     0.9518     0.0000
  8 C      6.0584     6.0000    -0.0584     3.8486     3.8486    -0.0000
  9 H      0.8990     1.0000     0.1010     0.9552     0.9552     0.0000
 10 H      0.8604     1.0000     0.1396     0.9587     0.9587     0.0000
 11 C      5.5176     6.0000     0.4824     3.9734     3.9734    -0.0000
 12 O      8.4198     8.0000    -0.4198     2.1147     2.1147     0.0000
 13 N      7.5565     7.0000    -0.5565     2.9184     2.9184     0.0000
 14 H      0.6834     1.0000     0.3166     0.9184     0.9184    -0.0000
 15 O      8.4471     8.0000    -0.4471     2.0387     2.0387    -0.0000
 16 H      0.8442     1.0000     0.1558     0.9592     0.9592    -0.0000
 17 O      8.4158     8.0000    -0.4158     2.1111     2.1111    -0.0000
 18 H      0.6821     1.0000     0.3179     0.9174     0.9174    -0.0000

  Mayer bond orders larger than 0.100000
B(  0-C ,  1-C ) :   0.9626 B(  0-C ,  4-O ) :   1.0920 B(  0-C , 17-O ) :   1.9037 
B(  1-C ,  5-C ) :   0.9925 B(  1-C ,  6-H ) :   0.9052 B(  1-C ,  7-H ) :   0.9318 
B(  2-H , 13-N ) :   0.9075 B(  3-H , 13-N ) :   0.8998 B(  4-O , 14-H ) :   0.8533 
B(  5-C ,  8-C ) :   0.9762 B(  5-C ,  9-H ) :   0.9424 B(  5-C , 10-H ) :   0.9369 
B(  8-C , 11-C ) :   0.9065 B(  8-C , 13-N ) :   1.0451 B(  8-C , 16-H ) :   0.9082 
B( 11-C , 12-O ) :   1.9285 B( 11-C , 15-O ) :   1.0901 B( 15-O , 18-H ) :   0.8511 


-------
TIMINGS
-------

Total SCF time: 0 days 0 hours 0 min 7 sec 

Total time                  ....       7.635 sec
Sum of individual times     ....       7.203 sec  ( 94.3%)

SCF preparation             ....       0.030 sec  (  0.4%)
Fock matrix formation       ....       7.109 sec  ( 93.1%)
  Startup                   ....       0.001 sec  (  0.0% of F)
  Split-RI-J                ....       2.513 sec  ( 35.3% of F)
  XC integration            ....       4.953 sec  ( 69.7% of F)
    XC Preparation          ....       0.000 sec  (  0.0% of XC)
    Basis function eval.    ....       1.786 sec  ( 36.1% of XC)
    Density eval.           ....       1.068 sec  ( 21.6% of XC)
    XC-Functional eval.     ....       0.922 sec  ( 18.6% of XC)
    XC-Potential eval.      ....       1.043 sec  ( 21.1% of XC)
Diagonalization             ....       0.000 sec  (  0.0%)
Density matrix formation    ....       0.007 sec  (  0.1%)
Total Energy calculation    ....       0.001 sec  (  0.0%)
Population analysis         ....       0.002 sec  (  0.0%)
Orbital Transformation      ....       0.006 sec  (  0.1%)
Orbital Orthonormalization  ....       0.000 sec  (  0.0%)
DIIS solution               ....       0.025 sec  (  0.3%)
SOSCF solution              ....       0.024 sec  (  0.3%)
Finished LeanSCF after   7.6 sec

Maximum memory used throughout the entire LEANSCF-calculation: 20.1 MB



-------------------------------------------------------------------------------
                          DFT DISPERSION CORRECTION                            
-------------------------------------------------------------------------------
Active option DFTDOPT                   ...         2   
Final C6-coefficient scaling factor     ...     1.250
Final VDW-radii scaling factor          ...     1.100
Damping factor alpha                    ...    20.000
-------------------------   ----------------
Dispersion correction           -0.025576714
-------------------------   ----------------


-------------------------   --------------------
FINAL SINGLE POINT ENERGY      -551.285763589537
-------------------------   --------------------

------------------------------------------------------------------------------
                         ORCA SCF GRADIENT CALCULATION
------------------------------------------------------------------------------

Nuc. rep. gradient        (SHARK) ... done (  0.0 sec)
HCore & Overlap gradient  (SHARK) ... done (  0.1 sec)
Split-RIJ-J gradient      (SHARK) ... done (  0.6 sec)
XC gradient                       ... done (  2.3 sec)
Dispersion correction             ... done (  0.0 sec)

-------------------
DISPERSION GRADIENT
-------------------

   1   C   :   -0.001152889   -0.000023678    0.000050424
   2   C   :    0.000521610   -0.000354726    0.000262391
   3   H   :   -0.000252405    0.000900525   -0.000018249
   4   H   :    0.000213722    0.001012358   -0.000167740
   5   O   :   -0.000055241   -0.000263887   -0.000486493
   6   C   :   -0.000643322    0.000108777   -0.001254574
   7   H   :   -0.000280401   -0.000432650    0.000259405
   8   H   :    0.000045550    0.000466559   -0.000306065
   9   C   :    0.000217380    0.000128063    0.001207040
  10   H   :   -0.000107890   -0.000958475   -0.000005851
  11   H   :   -0.000608123    0.000171142    0.000956557
  12   C   :    0.000397425   -0.000012944   -0.000269460
  13   O   :    0.000540891   -0.000614357   -0.000027633
  14   N   :    0.000300663   -0.000597999   -0.000044052
  15   H   :    0.000392480   -0.000128915    0.000039888
  16   O   :    0.000690177    0.000071006    0.000305478
  17   H   :    0.000686661    0.000323804    0.000079870
  18   O   :   -0.000987701   -0.000157336   -0.000745718
  19   H   :    0.000081414    0.000362733    0.000164783

Difference to translation invariance:
           :   -0.0000000000   -0.0000000000   -0.0000000000

Difference to rotation invariance:
           :   -0.0000000000    0.0000000000    0.0000000000

Norm of the Dispersion gradient    ...    0.0038595531
RMS gradient                       ...    0.0005112103
MAX gradient                       ...    0.0012545737

------------------
CARTESIAN GRADIENT
------------------

   1   C   :    0.009960965   -0.005773554   -0.007723014
   2   C   :    0.001094002    0.001628699   -0.002661353
   3   H   :   -0.003504520   -0.001879960   -0.000230439
   4   H   :   -0.002507576   -0.001195901   -0.002919436
   5   O   :    0.026496705   -0.008658980    0.001830984
   6   C   :    0.001469018    0.000237501    0.006620721
   7   H   :    0.002752142   -0.004855994   -0.000270624
   8   H   :    0.005834419    0.001225501   -0.002898956
   9   C   :   -0.001759643   -0.000571968   -0.001726046
  10   H   :    0.000644307   -0.000780812   -0.006282655
  11   H   :   -0.001294170    0.004729969   -0.001538932
  12   C   :    0.005695707   -0.000862284    0.007232414
  13   O   :   -0.013160996   -0.021953218   -0.020378428
  14   N   :    0.007594258   -0.004255854    0.005496287
  15   H   :   -0.006047302    0.002740725    0.001728497
  16   O   :   -0.000831961    0.027895196    0.011801904
  17   H   :    0.000195816    0.001441165    0.002516305
  18   O   :   -0.030885718    0.015949508    0.013194025
  19   H   :   -0.001745453   -0.005059739   -0.003791254

Difference to translation invariance:
           :   -0.0000000000   -0.0000000000    0.0000000000

Difference to rotation invariance:
           :    0.0000625327   -0.0001823826    0.0001921808

Norm of the Cartesian gradient     ...    0.0697937074
RMS gradient                       ...    0.0092444024
MAX gradient                       ...    0.0308857175

-------
TIMINGS
-------

Total SCF gradient time     ....        3.033 sec

Densities                   ....       0.000 sec  (  0.0%)
One electron gradient       ....       0.111 sec  (  3.7%)
RI-J Coulomb gradient       ....       0.597 sec  ( 19.7%)
XC gradient                 ....       2.324 sec  ( 76.6%)

Maximum memory used throughout the entire SCFGRAD-calculation: 26.0 MB
------------------------------------------------------------------------------
                         ORCA GEOMETRY RELAXATION STEP
------------------------------------------------------------------------------

Reading the OPT-File                    .... done
Getting information on internals        .... done
Copying old internal coords+grads       .... done
Making the new internal coordinates     .... (2022 redundants) done
Validating the new internal coordinates .... (2022 redundants) done
Calculating the B-matrix                .... done
Calculating the G,G- and P matrices     .... done
Transforming gradient to internals      .... done
Projecting the internal gradient        .... done
Number of atoms                         ....  19
Number of internal coordinates          ....  78
Current Energy                          ....  -551.285763590 Eh
Current gradient norm                   ....     0.069793707 Eh/bohr
Maximum allowed component of the step   ....  0.300
Current trust radius                    ....  0.300
Evaluating the initial hessian          ....  (Almloef) done
Projecting the Hessian                  .... done
Forming the augmented Hessian           .... done
Diagonalizing the augmented Hessian     .... done
Last element of RFO vector              ....  0.988993161
Lowest eigenvalues of augmented Hessian:
 -0.006974311  0.010546824  0.010944338  0.011547669  0.012381979
Length of the computed step             ....  0.149607944
The final length of the internal step   ....  0.149607944
Converting the step to Cartesian space:
 Initial RMS(Int)=    0.0169397639
Transforming coordinates:
 Iter   0:  RMS(Cart)=    0.0484020086 RMS(Int)=    0.0170019626
done
Storing new coordinates                 .... done

                                .--------------------.
          ----------------------|Geometry convergence|-------------------------
          Item                value                   Tolerance       Converged
          ---------------------------------------------------------------------
          RMS gradient        0.0076305220            0.0001000000      NO
          MAX gradient        0.0370935354            0.0003000000      NO
          RMS step            0.0169397639            0.0020000000      NO
          MAX step            0.0443549003            0.0040000000      NO
          -------------------------------------------------------------------------
          ........................................................
          Max(Bonds)      0.0176      Max(Angles)    1.80
          Max(Dihed)        2.54      Max(Improp)    0.00
          ---------------------------------------------------------------------

The optimization has not yet converged - more geometry cycles are needed


    ---------------------------------------------------------------------------
                         Redundant Internal Coordinates
                            (Angstroem and degrees)

        Definition                    Value    dE/dq     Step     New-Value
    ----------------------------------------------------------------------------
     1. B(C   1,C   0)                1.5055 -0.010000  0.0127    1.5182   
     2. B(O   4,C   0)                1.3412 -0.020062  0.0157    1.3569   
     3. B(C   5,C   1)                1.5249 -0.009047  0.0124    1.5372   
     4. B(H   6,C   1)                1.0922 -0.005177  0.0075    1.0998   
     5. B(H   7,C   1)                1.0908 -0.006456  0.0093    1.1002   
     6. B(C   8,C   5)                1.5388 -0.010492  0.0151    1.5538   
     7. B(H   9,C   5)                1.0916 -0.006310  0.0091    1.1007   
     8. B(H  10,C   5)                1.0900 -0.004787  0.0069    1.0969   
     9. B(C  11,C   8)                1.5237 -0.011046  0.0150    1.5387   
    10. B(O  12,C  11)                1.2037 -0.032708  0.0155    1.2192   
    11. B(N  13,C   8)                1.4507 -0.007396  0.0086    1.4593   
    12. B(N  13,H   3)                1.0166 -0.003033  0.0037    1.0204   
    13. B(N  13,H   2)                1.0142 -0.003373  0.0041    1.0183   
    14. B(H  14,O   4)                0.9702 -0.003079  0.0032    0.9734   
    15. B(O  15,C  11)                1.3340 -0.023034  0.0176    1.3515   
    16. B(H  16,C   8)                1.0945 -0.002713  0.0040    1.0985   
    17. B(O  17,C   0)                1.2010 -0.037094  0.0174    1.2184   
    18. B(H  18,O  15)                0.9709 -0.002844  0.0030    0.9739   
    19. A(O   4,C   0,O  17)          122.21 -0.004912    0.60    122.82   
    20. A(C   1,C   0,O  17)          126.57  0.000948   -0.09    126.49   
    21. A(C   1,C   0,O   4)          111.21  0.003963   -0.51    110.70   
    22. A(C   0,C   1,H   6)          107.69  0.000285    0.06    107.75   
    23. A(C   0,C   1,H   7)          107.84  0.000542   -0.06    107.78   
    24. A(C   5,C   1,H   7)          111.15 -0.000150    0.02    111.17   
    25. A(H   6,C   1,H   7)          107.99  0.001318   -0.61    107.39   
    26. A(C   0,C   1,C   5)          112.79 -0.001670    0.41    113.20   
    27. A(C   5,C   1,H   6)          109.21 -0.000180    0.13    109.34   
    28. A(C   0,O   4,H  14)          110.39  0.011250   -1.70    108.69   
    29. A(C   8,C   5,H  10)          108.65  0.000381   -0.15    108.50   
    30. A(C   1,C   5,H  10)          110.16  0.002916   -0.25    109.91   
    31. A(C   8,C   5,H   9)          109.01  0.002896   -0.44    108.58   
    32. A(H   9,C   5,H  10)          109.16  0.001212   -0.74    108.41   
    33. A(C   1,C   5,H   9)          109.21  0.002625   -0.25    108.96   
    34. A(C   1,C   5,C   8)          110.62 -0.009919    1.80    112.42   
    35. A(C   5,C   8,C  11)          108.97  0.000057    0.27    109.24   
    36. A(N  13,C   8,H  16)          109.27  0.000414   -0.36    108.91   
    37. A(C  11,C   8,H  16)          108.21  0.000476   -0.34    107.87   
    38. A(C   5,C   8,H  16)          108.13  0.001256   -0.63    107.51   
    39. A(C  11,C   8,N  13)          112.23  0.000394    0.25    112.48   
    40. A(C   5,C   8,N  13)          109.93 -0.002508    0.76    110.68   
    41. A(C   8,C  11,O  12)          124.07 -0.002417    0.34    124.42   
    42. A(O  12,C  11,O  15)          122.97 -0.003245    0.41    123.38   
    43. A(C   8,C  11,O  15)          112.96  0.005663   -0.76    112.20   
    44. A(H   3,N  13,C   8)          109.19  0.001469   -0.50    108.69   
    45. A(H   2,N  13,C   8)          110.20  0.001227   -0.45    109.75   
    46. A(H   2,N  13,H   3)          106.72  0.001150   -0.80    105.92   
    47. A(C  11,O  15,H  18)          110.68  0.010842   -1.63    109.05   
    48. D(C   5,C   1,C   0,O  17)     -4.09  0.000536   -0.31     -4.40   
    49. D(H   6,C   1,C   0,O  17)    116.48 -0.000528    0.15    116.63   
    50. D(H   6,C   1,C   0,O   4)    -63.64 -0.001181    0.94    -62.70   
    51. D(H   7,C   1,C   0,O   4)     52.67  0.000788    0.23     52.90   
    52. D(C   5,C   1,C   0,O   4)    175.79 -0.000116    0.47    176.27   
    53. D(H  14,O   4,C   0,O  17)     -0.79 -0.000314    0.38     -0.41   
    54. D(H  14,O   4,C   0,C   1)    179.32  0.000298   -0.36    178.96   
    55. D(H   9,C   5,C   1,H   7)    -45.80 -0.001086    0.40    -45.40   
    56. D(H   9,C   5,C   1,H   6)     73.25  0.000335   -0.26     72.99   
    57. D(H   9,C   5,C   1,C   0)   -167.06 -0.000498    0.17   -166.88   
    58. D(C   8,C   5,C   1,H   7)   -165.78 -0.000187   -0.02   -165.80   
    59. D(C   8,C   5,C   1,H   6)    -46.73  0.001234   -0.67    -47.41   
    60. D(C   8,C   5,C   1,C   0)     72.96  0.000401   -0.24     72.72   
    61. D(C  11,C   8,C   5,H   9)     60.69  0.000484    1.31     62.00   
    62. D(C  11,C   8,C   5,C   1)   -179.21 -0.000555    1.83   -177.38   
    63. D(N  13,C   8,C   5,H  10)    178.46 -0.001761    1.56    180.01   
    64. D(N  13,C   8,C   5,H   9)    -62.69  0.001585    0.32    -62.36   
    65. D(N  13,C   8,C   5,C   1)     57.41  0.000546    0.85     58.26   
    66. D(C  11,C   8,C   5,H  10)    -58.17 -0.002863    2.54    -55.63   
    67. D(O  15,C  11,C   8,N  13)   -172.45 -0.001615    1.45   -171.01   
    68. D(O  15,C  11,C   8,C   5)     65.55  0.001260    0.13     65.69   
    69. D(O  12,C  11,C   8,H  16)    128.61 -0.000763    1.63    130.24   
    70. D(O  12,C  11,C   8,N  13)      7.96 -0.001845    2.15     10.11   
    71. D(O  12,C  11,C   8,C   5)   -114.03  0.001030    0.84   -113.19   
    72. D(H   3,N  13,C   8,C  11)    -50.73 -0.001184    0.87    -49.86   
    73. D(H   3,N  13,C   8,C   5)     70.72 -0.002602    1.91     72.63   
    74. D(H   2,N  13,C   8,H  16)    -53.84  0.000654   -0.15    -54.00   
    75. D(H   2,N  13,C   8,C  11)     66.19  0.001783   -0.66     65.53   
    76. D(H   2,N  13,C   8,C   5)   -172.36  0.000366    0.38   -171.98   
    77. D(H  18,O  15,C  11,O  12)     -0.14 -0.000093   -0.07     -0.20   
    78. D(H  18,O  15,C  11,C   8)   -179.73 -0.000324    0.63   -179.10   
    ----------------------------------------------------------------------------

Geometry step timings:
Preparation and reading OPT file:      0.000 s ( 1.177 %)
Internal coordinates            :      0.000 s ( 1.009 %)
B/P matrices and projection     :      0.000 s (36.838 %)
Hessian update/contruction      :      0.000 s (10.429 %)
Making the step                 :      0.000 s (29.184 %)
Converting the step to Cartesian:      0.000 s ( 3.785 %)
Storing new data                :      0.000 s ( 1.346 %)
Checking convergence            :      0.000 s ( 1.177 %)
Final printing                  :      0.000 s (15.055 %)
Total time                      :      0.001 s

Time for energy+gradient        :     11.466 s
Time for complete geometry iter :     11.479 s

         *************************************************************
         *                GEOMETRY OPTIMIZATION CYCLE   2            *
         *************************************************************
---------------------------------
CARTESIAN COORDINATES (ANGSTROEM)
---------------------------------
  C     -2.811462   -0.102317   -1.341810
  C     -2.895021    0.502147    0.048369
  H     -0.127263    3.201072   -0.028234
  H     -0.859258    2.926760    1.398814
  O     -3.997697    0.018631   -1.989402
  C     -1.608168    0.315567    0.868286
  H     -3.102079    1.576260   -0.065039
  H     -3.759892    0.052691    0.558609
  C     -0.450741    1.224310    0.369404
  H     -1.816529    0.559489    1.921217
  H     -1.278623   -0.729175    0.813413
  C      0.814737    0.932153    1.194598
  O      1.332898    1.722612    1.964795
  N     -0.839434    2.629883    0.422803
  H     -3.906828   -0.362183   -2.880576
  O      1.281221   -0.319427    0.988281
  H     -0.243010    0.951820   -0.674280
  O     -1.832477   -0.621428   -1.848485
  H      2.070648   -0.459542    1.541135

----------------------------
CARTESIAN COORDINATES (A.U.)
----------------------------
  NO LB      ZA    FRAG     MASS         X           Y           Z
   0 C     6.0000    0    12.011   -5.312893   -0.193351   -2.535653
   1 C     6.0000    0    12.011   -5.470797    0.948920    0.091405
   2 H     1.0000    0     1.008   -0.240492    6.049149   -0.053355
   3 H     1.0000    0     1.008   -1.623761    5.530776    2.643375
   4 O     8.0000    0    15.999   -7.554552    0.035208   -3.759425
   5 C     6.0000    0    12.011   -3.038996    0.596335    1.640824
   6 H     1.0000    0     1.008   -5.862080    2.978700   -0.122906
   7 H     1.0000    0     1.008   -7.105166    0.099571    1.055618
   8 C     6.0000    0    12.011   -0.851777    2.313610    0.698072
   9 H     1.0000    0     1.008   -3.432742    1.057280    3.630574
  10 H     1.0000    0     1.008   -2.416246   -1.377941    1.537128
  11 C     6.0000    0    12.011    1.539630    1.761514    2.257462
  12 O     8.0000    0    15.999    2.518812    3.255265    3.712924
  13 N     7.0000    0    14.007   -1.586300    4.969759    0.798982
  14 H     1.0000    0     1.008   -7.382835   -0.684426   -5.443500
  15 O     8.0000    0    15.999    2.421158   -0.603629    1.867580
  16 H     1.0000    0     1.008   -0.459222    1.798678   -1.274205
  17 O     8.0000    0    15.999   -3.462879   -1.174329   -3.493130
  18 H     1.0000    0     1.008    3.912958   -0.868408    2.912323

--------------------------------
INTERNAL COORDINATES (ANGSTROEM)
--------------------------------
 C      0   0   0     0.000000000000     0.00000000     0.00000000
 C      1   0   0     1.518208417509     0.00000000     0.00000000
 H      2   1   0     3.866593974532   102.73079043     0.00000000
 H      3   2   1     1.627122830321    62.80153176   186.81038453
 O      1   2   3     1.356892628762   110.69599003   238.53937489
 C      2   1   3     1.537227287133   113.20343984   297.72703392
 H      2   1   3     1.099751529029   107.74602100    58.75724958
 H      2   1   3     1.100162176927   107.77539114   174.35716257
 C      6   2   1     1.553812558130   112.41640869    72.72003455
[...]
      px      :     0.925996
      py      :     0.820810
      dz2     :     0.009720  d :     0.054865
      dxz     :     0.008658
      dyz     :     0.008798
      dx2y2   :     0.013448
      dxy     :     0.014241

  9 H s       :     0.884470  s :     0.884470
      pz      :     0.006156  p :     0.011320
      px      :     0.002476
      py      :     0.002688

 10 H s       :     0.851783  s :     0.851783
      pz      :     0.002481  p :     0.011421
      px      :     0.002733
      py      :     0.006207

 11 C s       :     3.008624  s :     3.008624
      pz      :     0.810232  p :     2.384429
      px      :     0.855883
      py      :     0.718314
      dz2     :     0.021750  d :     0.117648
      dxz     :     0.019689
      dyz     :     0.023425
      dx2y2   :     0.029825
      dxy     :     0.022959

 12 O s       :     3.870033  s :     3.870033
      pz      :     1.392636  p :     4.529203
      px      :     1.587685
      py      :     1.548883
      dz2     :     0.007967  d :     0.027251
      dxz     :     0.004502
      dyz     :     0.006379
      dx2y2   :     0.003713
      dxy     :     0.004689

 13 N s       :     3.609953  s :     3.609953
      pz      :     1.244938  p :     3.918951
      px      :     1.596144
      py      :     1.077868
      dz2     :     0.007604  d :     0.028867
      dxz     :     0.003719
      dyz     :     0.004706
      dx2y2   :     0.004347
      dxy     :     0.008491

 14 H s       :     0.644167  s :     0.644167
      pz      :     0.018664  p :     0.037461
      px      :     0.007654
      py      :     0.011143

 15 O s       :     3.842645  s :     3.842645
      pz      :     1.650555  p :     4.588993
      px      :     1.457978
      py      :     1.480460
      dz2     :     0.003061  d :     0.023340
      dxz     :     0.005799
      dyz     :     0.004800
      dx2y2   :     0.006170
      dxy     :     0.003509

 16 H s       :     0.832813  s :     0.832813
      pz      :     0.006560  p :     0.011459
      px      :     0.002548
      py      :     0.002350

 17 O s       :     3.876746  s :     3.876746
      pz      :     1.647484  p :     4.519789
      px      :     1.457335
      py      :     1.414970
      dz2     :     0.003812  d :     0.027159
      dxz     :     0.006487
      dyz     :     0.002648
      dx2y2   :     0.007045
      dxy     :     0.007167

 18 H s       :     0.643500  s :     0.643500
      pz      :     0.013544  p :     0.037460
      px      :     0.016313
      py      :     0.007603



                     *******************************
                     * LOEWDIN POPULATION ANALYSIS *
                     *******************************

----------------------
LOEWDIN ATOMIC CHARGES
----------------------
   0 C :    0.145673
   1 C :   -0.153820
   2 H :    0.130818
   3 H :    0.129110
   4 O :   -0.159274
   5 C :   -0.113858
   6 H :    0.106100
   7 H :    0.093833
   8 C :   -0.051519
   9 H :    0.073096
  10 H :    0.084513
  11 C :    0.125586
  12 O :   -0.233549
  13 N :   -0.253384
  14 H :    0.182827
  15 O :   -0.152636
  16 H :    0.094128
  17 O :   -0.231320
  18 H :    0.183675

-------------------------------
LOEWDIN REDUCED ORBITAL CHARGES
-------------------------------
  0 C s       :     2.861888  s :     2.861888
      pz      :     0.962838  p :     2.713460
      px      :     0.914835
      py      :     0.835787
      dz2     :     0.053308  d :     0.278979
      dxz     :     0.080687
      dyz     :     0.029553
      dx2y2   :     0.065000
      dxy     :     0.050431

  1 C s       :     2.911410  s :     2.911410
      pz      :     1.022099  p :     3.166651
      px      :     1.050942
      py      :     1.093610
      dz2     :     0.020227  d :     0.075759
      dxz     :     0.016872
      dyz     :     0.012317
      dx2y2   :     0.016231
      dxy     :     0.010112

  2 H s       :     0.791861  s :     0.791861
      pz      :     0.021493  p :     0.077321
      px      :     0.034501
      py      :     0.021327

  3 H s       :     0.792846  s :     0.792846
      pz      :     0.042459  p :     0.078044
      px      :     0.020886
      py      :     0.014699

  4 O s       :     3.497750  s :     3.497750
      pz      :     1.352026  p :     4.613390
      px      :     1.562341
      py      :     1.699023
      dz2     :     0.011017  d :     0.048134
      dxz     :     0.012834
      dyz     :     0.006547
      dx2y2   :     0.010917
      dxy     :     0.006818

  5 C s       :     2.910222  s :     2.910222
      pz      :     1.056246  p :     3.126054
      px      :     1.002185
      py      :     1.067624
      dz2     :     0.020206  d :     0.077582
      dxz     :     0.016970
      dyz     :     0.005502
      dx2y2   :     0.017768
      dxy     :     0.017137

  6 H s       :     0.851735  s :     0.851735
      pz      :     0.007035  p :     0.042165
      px      :     0.007514
      py      :     0.027617

  7 H s       :     0.866379  s :     0.866379
      pz      :     0.010750  p :     0.039788
      px      :     0.018605
      py      :     0.010433

  8 C s       :     2.890675  s :     2.890675
      pz      :     1.073795  p :     3.037042
      px      :     1.014811
      py      :     0.948435
      dz2     :     0.021086  d :     0.123802
      dxz     :     0.021266
      dyz     :     0.017170
      dx2y2   :     0.031177
      dxy     :     0.033104

  9 H s       :     0.888398  s :     0.888398
      pz      :     0.023241  p :     0.038506
      px      :     0.007363
      py      :     0.007903

 10 H s       :     0.875525  s :     0.875525
      pz      :     0.006755  p :     0.039962
      px      :     0.008407
      py      :     0.024800

 11 C s       :     2.872543  s :     2.872543
      pz      :     0.915695  p :     2.723890
      px      :     0.924838
      py      :     0.883356
      dz2     :     0.046861  d :     0.277981
      dxz     :     0.046800
      dyz     :     0.058674
      dx2y2   :     0.072709
      dxy     :     0.052937

 12 O s       :     3.569216  s :     3.569216
      pz      :     1.442293  p :     4.608766
      px      :     1.590139
      py      :     1.576334
      dz2     :     0.012063  d :     0.055567
      dxz     :     0.010551
      dyz     :     0.016693
      dx2y2   :     0.007309
      dxy     :     0.008951

 13 N s       :     3.217769  s :     3.217769
      pz      :     1.253708  p :     3.978697
      px      :     1.585894
      py      :     1.139096
      dz2     :     0.014608  d :     0.056918
      dxz     :     0.005095
      dyz     :     0.011884
      dx2y2   :     0.009752
      dxy     :     0.015578

 14 H s       :     0.703223  s :     0.703223
      pz      :     0.059378  p :     0.113949
      px      :     0.021538
      py      :     0.033033

 15 O s       :     3.496065  s :     3.496065
      pz      :     1.639892  p :     4.607628
      px      :     1.456500
      py      :     1.511236
      dz2     :     0.005355  d :     0.048943
      dxz     :     0.010945
      dyz     :     0.008562
      dx2y2   :     0.013650
      dxy     :     0.010431

 16 H s       :     0.864424  s :     0.864424
      pz      :     0.026276  p :     0.041449
      px      :     0.007454
      py      :     0.007719

 17 O s       :     3.569258  s :     3.569258
      pz      :     1.657233  p :     4.606759
      px      :     1.525041
      py      :     1.424486
      dz2     :     0.007240  d :     0.055303
      dxz     :     0.014643
      dyz     :     0.005670
      dx2y2   :     0.012745
      dxy     :     0.015006

 18 H s       :     0.702399  s :     0.702399
      pz      :     0.042010  p :     0.113926
      px      :     0.051091
      py      :     0.020824



                      *****************************
                      * MAYER POPULATION ANALYSIS *
                      *****************************

  NA   - Mulliken gross atomic population
  ZA   - Total nuclear charge
  QA   - Mulliken gross atomic charge
  VA   - Mayer's total valence
  BVA  - Mayer's bonded valence
  FA   - Mayer's free valence

  ATOM       NA         ZA         QA         VA         BVA        FA
  0 C      5.4824     6.0000     0.5176     3.9544     3.9544    -0.0000
  1 C      6.2714     6.0000    -0.2714     3.8142     3.8142     0.0000
  2 H      0.7539     1.0000     0.2461     0.9174     0.9174     0.0000
  3 H      0.7528     1.0000     0.2472     0.9312     0.9312    -0.0000
  4 O      8.4648     8.0000    -0.4648     2.0338     2.0338     0.0000
  5 C      6.1871     6.0000    -0.1871     3.8616     3.8616     0.0000
  6 H      0.8292     1.0000     0.1708     0.9600     0.9600     0.0000
  7 H      0.8626     1.0000     0.1374     0.9511     0.9511    -0.0000
  8 C      6.0562     6.0000    -0.0562     3.8435     3.8435     0.0000
  9 H      0.8958     1.0000     0.1042     0.9551     0.9551     0.0000
 10 H      0.8632     1.0000     0.1368     0.9572     0.9572     0.0000
 11 C      5.5107     6.0000     0.4893     3.9362     3.9362     0.0000
 12 O      8.4265     8.0000    -0.4265     2.1058     2.1058     0.0000
 13 N      7.5578     7.0000    -0.5578     2.9059     2.9059     0.0000
 14 H      0.6816     1.0000     0.3184     0.9177     0.9177     0.0000
 15 O      8.4550     8.0000    -0.4550     2.0351     2.0351    -0.0000
 16 H      0.8443     1.0000     0.1557     0.9593     0.9593     0.0000
 17 O      8.4237     8.0000    -0.4237     2.1012     2.1012    -0.0000
 18 H      0.6810     1.0000     0.3190     0.9167     0.9167     0.0000

  Mayer bond orders larger than 0.100000
B(  0-C ,  1-C ) :   0.9603 B(  0-C ,  4-O ) :   1.0796 B(  0-C , 17-O ) :   1.8846 
B(  1-C ,  5-C ) :   0.9912 B(  1-C ,  6-H ) :   0.9086 B(  1-C ,  7-H ) :   0.9301 
B(  2-H , 13-N ) :   0.9078 B(  3-H , 13-N ) :   0.8955 B(  4-O , 14-H ) :   0.8531 
B(  5-C ,  8-C ) :   0.9709 B(  5-C ,  9-H ) :   0.9413 B(  5-C , 10-H ) :   0.9374 
B(  8-C , 11-C ) :   0.9052 B(  8-C , 13-N ) :   1.0408 B(  8-C , 16-H ) :   0.9091 
B( 11-C , 12-O ) :   1.9034 B( 11-C , 15-O ) :   1.0758 B( 15-O , 18-H ) :   0.8521 


-------
TIMINGS
-------

Total SCF time: 0 days 0 hours 0 min 3 sec 

Total time                  ....       3.074 sec
Sum of individual times     ....       2.641 sec  ( 85.9%)

SCF preparation             ....       0.032 sec  (  1.1%)
Fock matrix formation       ....       2.577 sec  ( 83.8%)
  Startup                   ....       0.001 sec  (  0.0% of F)
  Split-RI-J                ....       0.979 sec  ( 38.0% of F)
  XC integration            ....       1.967 sec  ( 76.3% of F)
    XC Preparation          ....       0.000 sec  (  0.0% of XC)
    Basis function eval.    ....       0.721 sec  ( 36.6% of XC)
    Density eval.           ....       0.431 sec  ( 21.9% of XC)
    XC-Functional eval.     ....       0.382 sec  ( 19.4% of XC)
    XC-Potential eval.      ....       0.379 sec  ( 19.3% of XC)
Diagonalization             ....       0.000 sec  (  0.0%)
Density matrix formation    ....       0.002 sec  (  0.1%)
Total Energy calculation    ....       0.000 sec  (  0.0%)
Population analysis         ....       0.010 sec  (  0.3%)
Orbital Transformation      ....       0.003 sec  (  0.1%)
Orbital Orthonormalization  ....       0.000 sec  (  0.0%)
DIIS solution               ....       0.003 sec  (  0.1%)
SOSCF solution              ....       0.013 sec  (  0.4%)
Finished LeanSCF after   3.1 sec

Maximum memory used throughout the entire LEANSCF-calculation: 20.6 MB



-------------------------------------------------------------------------------
                          DFT DISPERSION CORRECTION                            
-------------------------------------------------------------------------------
Active option DFTDOPT                   ...         2   
Final C6-coefficient scaling factor     ...     1.250
Final VDW-radii scaling factor          ...     1.100
Damping factor alpha                    ...    20.000
-------------------------   ----------------
Dispersion correction           -0.025123205
-------------------------   ----------------


-------------------------   --------------------
FINAL SINGLE POINT ENERGY      -551.290621528859
-------------------------   --------------------

                                *** OPTIMIZATION RUN DONE ***


------------------------------------------------------------------------------
                              ORCA PROPERTY CALCULATIONS
------------------------------------------------------------------------------

GBWName                                 ... 5.gbw
Number of atoms                         ...     19
Number of basis functions               ...    185
Max core memory                         ...   4096 MB

Electric properties:
Dipole moment                           ... YES
Quadrupole moment                       ...  NO
Static polarizability (Dipole/Dipole)   ...  NO
Static polarizability (Dipole/Quad.)    ...  NO
Static polarizability (Quad./Quad.)     ...  NO
Static polarizability (Velocity)        ...  NO
Static hyperpolarizability              ...  NO

Atomic electric properties:
Dipole moment                           ...  NO
Quadrupole moment                       ...  NO
Static polarizability                   ...  NO

Choice of electric origin               ... Center of mass
Position of electric origin             ...    -2.064527     1.175733     0.109727

General magnetic properties:
Magnetizability                         ...  NO

EPR properties:
g-Tensor (aka g-matrix)                 ...  NO
Zero-Field splitting spin-orbit         ...  NO
Zero-field splitting spin-spin          ...  NO
Hyperfine couplings                     ...  NO (   0 nuclei)
Quadrupole couplings                    ...  NO (   0 nuclei)
Contact density                         ...  NO (   0 nuclei)

NMR properties:
Chemical shifts                         ...  NO (   0 nuclei)
Spin-rotation constants                 ...  NO (   0 nuclei)
Spin-spin couplings                     ...  NO (   0 nuclei,    0 pairs)

Choice of magnetic origin               ... GIAO
Position of magnetic origin             ...     0.000000     0.000000     0.000000

Properties with geometric perturbations:
SCF Hessian                             ...  NO
IR spectrum                             ...  NO
VCD spectrum                            ...  NO
X-ray spectroscopy properties:
SCF XES/XAS/RIXS spectra                ...  NO

SCF SOC stabilization energy            ...  NO
Diagonal Born-Oppenheimer correction    ...  NO

-------------
DIPOLE MOMENT
-------------

Method             : SCF
Type of density    : Electron Density
Multiplicity       :   1
Irrep              :   0
Energy             :  -551.2654983242715616 Eh
Basis              : AO
                                X                 Y                 Z
Electronic contribution:      2.725921738      -2.177478263      -1.902305507
Nuclear contribution   :     -2.905815343       1.998712343       1.881240245
                        -----------------------------------------
Total Dipole Moment    :     -0.179893605      -0.178765920      -0.021065262
                        -----------------------------------------
Magnitude (a.u.)       :      0.254485183
Magnitude (Debye)      :      0.646849930



--------------------
Rotational spectrum 
--------------------
 
Rotational constants in cm-1:             0.091103             0.022065             0.019775 
Rotational constants in MHz :          2731.191366           661.483162           592.842661 

Dipole components along the rotational axes: 
x,y,z [a.u.] :     0.194531     0.080446     0.142999 
x,y,z [Debye]:     0.494459     0.204477     0.363475 

 

Dipole moment calculation done in   0.0 sec 

Maximum memory used throughout the entire PROP-calculation: 11.7 MB

--------------------------------
SUGGESTED CITATIONS FOR THIS RUN
--------------------------------

Below you find a list of papers that are relevant to this ORCA run
We neither can nor want to force you to cite these papers, but we appreciate if you do
You receive ORCA, which is the product of decades of hard work by many enthusiastic individuals, for free
The only thing we kindly ask in return is that you cite our papers,
We deeply appreciate it, if you show your appreciation for ORCA by not just citing the generic ORCA reference.

Please note that relegating all ORCA citations to the supporting information does *not* help us.
SI sections are not indexed - citations you put there will not count into any citation statistics
But we need these citations in order to attract the funding resources that allow us to do what we are doing

Therefore, if you are a happy ORCA user, please consider citing a few of the papers listed below in the main body of your paper

In addition to the list printed below, the program has created the file 5.bibtex that contains the list in bibtex format
You can import this file easily into all common literature databanks and citation aid programs


List of essential papers. We consider these as the minimum necessary citations

  1. Neese, F.
     Software update: the ORCA program system, version 6.0
     WIRES Comput. Molec. Sci. 2025 15(1), e70019
     doi.org/10.1002/wcms.7019

List of papers to cite with high priority. The work reported in these papers was absolutely
necessary for this run to complete.
Our perspective: the developers of density functionals and basis sets usually get cited in chemistry papers
Good! But without the algorithms to do something with them, the functionals or basis sets would not do anything.
Hence, in our opinion, the algorithm design and method developments papers are equally worthy of getting cited

  1. Neese, F.
     An improvement of the resolution of the identity approximation for the formation of the Coulomb matrix
     J. Comp. Chem. 2003 24(14), 1740-1747
     doi.org/10.1002/jcc.10318
  2. Grimme, S.
     Semiempirical GGA-type density functional constructed with a long-range dispersion correction
     J.Comput.Chem. 2006 27(15), 1787-1799
     doi.org/10.1002/jcc.20495
  3. Neese, F.
     The SHARK Integral Generation and Digestion System
     J. Comp. Chem. 2022 44(3), 381
     doi.org/10.1002/jcc.26942

List of suggested additional citations. These are papers that are important in the 'surrounding' of 
of this run, or papers that preceded the highly important papers. If you like your results we are grateful for a citation.

  1. Neese, F.
     The ORCA program system
     WIRES Comput. Molec. Sci. 2012 2(1), 73-78
     doi.org/10.1002/wcms.81
  2. Neese, F.
     Software update: the ORCA program system, version 4.0
     WIRES Comput. Molec. Sci. 2018 8(1), 1-6
     doi.org/10.1002/wcms.1327
  3. Neese, F.; Wennmohs, F.; Becker, U.; Riplinger, C.
     The ORCA quantum chemistry program package
     J. Chem. Phys. 2020 152(22), 224108
     doi.org/10.1063/5.0004608
  4. Neese, F.
     Software update: The ORCA program system—Version 5.0
     WIRES Comput. Molec. Sci. 2022 12(1), e1606
     doi.org/10.1002/wcms.1606

List of optional additional citations

  1. Neese, F.
     Approximate second-order SCF convergence for spin unrestricted wavefunctions
     Chem. Phys. Lett. 2000 325(1-3), 93-98
     doi.org/10.1016/s0009-2614(00)00662-x

Timings for individual modules:

Sum of individual times          ...       93.612 sec (=   1.560 min)
Startup calculation              ...        5.297 sec (=   0.088 min)   5.7 %
SCF iterations                   ...       54.599 sec (=   0.910 min)  58.3 %
Property calculations            ...        0.039 sec (=   0.001 min)   0.0 %
SCF Gradient evaluation          ...       33.661 sec (=   0.561 min)  36.0 %
Geometry relaxation              ...        0.017 sec (=   0.000 min)   0.0 %
                             ****ORCA TERMINATED NORMALLY****
TOTAL RUN TIME: 0 days 0 hours 1 minutes 33 seconds 890 msec
