
                                 *****************
                                 * O   R   C   A *
                                 *****************

                                            #,                                       
                                            ###                                      
                                            ####                                     
                                            #####                                    
                                            ######                                   
                                           ########,                                 
                                     ,,################,,,,,                         
                               ,,#################################,,                 
                          ,,##########################################,,             
                       ,#########################################, ''#####,          
                    ,#############################################,,   '####,        
                  ,##################################################,,,,####,       
                ,###########''''           ''''###############################       
              ,#####''   ,,,,##########,,,,          '''####'''          '####       
            ,##' ,,,,###########################,,,                        '##       
           ' ,,###''''                  '''############,,,                           
         ,,##''                                '''############,,,,        ,,,,,,###''
      ,#''                                            '''#######################'''  
     '                                                          ''''####''''         
             ,#######,   #######,   ,#######,      ##                                
            ,#'     '#,  ##    ##  ,#'     '#,    #''#        ,####,    ,#,          
            ##       ##  ##   ,#'  ##            #'  '#       #'       ,# #          
            ##       ##  #######   ##           ,######,      #####,      #          
            '#,     ,#'  ##    ##  '#,     ,#' ,#      #,     #,   #      #          
             '#######'   ##     ##  '#######'  #'      '#     '####' #    #          



                #########################################################
                #                        -***-                          #
                #          Department of theory and spectroscopy        #
                #                                                       #
                #                      Frank Neese                      #
                #                                                       #
                #     Directorship, Architecture, Infrastructure        #
                #                    SHARK, DRIVERS                     #
                #        Core code/Algorithms in most modules           #
                #                                                       #
                #        Max Planck Institute fuer Kohlenforschung      #
                #                Kaiser Wilhelm Platz 1                 #
                #                 D-45470 Muelheim/Ruhr                 #
                #                      Germany                          #
                #                                                       #
                #                  All rights reserved                  #
                #                        -***-                          #
                #########################################################


                         Program Version 6.1.0  -  RELEASE   -
                                (GIT: $679e74b$)
                          ($2025-06-10 18:02:51 +0200$)


 With contributions from (in alphabetic order):
[Max-Planck-Institut fuer Kohlenforschung]                               
  Daniel Aravena         : Magnetic Suceptibility                        
  Michael Atanasov       : Ab Initio Ligand Field Theory (pilot matlab implementation)
  Alexander A. Auer      : GIAO ZORA, VPT2 properties, NMR spectrum      
  Ute Becker             : All parallelization in ORCA, NUMFREQ, NUMCALC 
  Giovanni Bistoni       : ED, misc. LED, open-shell LED, HFLD           
  Dmytro Bykov           : pre 5.0 version of the SCF Hessian            
  Marcos Casanova-Páez   : Triplet and SCS-CIS(D). UHF-(DLPNO)-IP/EA/STEOM-CCSD. UHF-CVS-IP/STEOM-CCSD   
  Vijay G. Chilkuri      : MRCI spin determinant printing, contributions to CSF-ICE 
  Pauline Colinet        : FMM embedding                                 
  Dipayan Datta          : RHF DLPNO-CCSD density                        
  Achintya Kumar Dutta   : EOM-CC, STEOM-CC                              
  Nicolas Foglia         : Exact transition moments, OPA infrastructure, MCD improvements    
  Dmitry Ganyushin       : Spin-Orbit,Spin-Spin,Magnetic field MRCI      
  Miquel Garcia-Rates    : C-PCM and meta-GGA Hessian, CCSD/C-PCM, Gaussian charge scheme 
  Tiago L. C. Gouveia    : GS-ROHF, GS-ROCIS                             
  Yang Guo               : DLPNO-NEVPT2, F12-NEVPT2, CIM, IAO-localization        
  Andreas Hansen         : Spin unrestricted coupled pair/coupled cluster methods 
  Ingolf Harden          : AUTO-CI MPn and infrastructure                
  Benjamin Helmich-Paris : MC-RPA, TRAH-(SCF,CASSCF), AVAS, COSX integrals, SCF dyn. polar., MC-PDFT, srDFT 
  Lee Huntington         : MR-EOM, pCC                                   
  Robert Izsak           : Overlap fitted RIJCOSX, COSX-SCS-MP3, EOM     
  Riya Kayal             : Wick's Theorem for AUTO-CI, AUTO-CI UHF-CCSDT 
  Emily Kempfer          : AUTO-CI RHF CISDT and CCSDT, approximate NEVPT4
  Christian Kollmar      : KDIIS, OOCD, Brueckner-CCSD(T), CCSD density, CASPT2, CASPT2-K, improved NEVPT2 
  Axel Koslowski         : Symmetry handling                             
  Simone Kossmann        : meta-GGA functionals, TD-DFT gradient, OOMP2, (MP2 Hessian; deprecated post 5.0) 
  Lucas Lang             : DCDCAS, Hyperfine gauge corrections, ICE-SOC+SSC
  Marvin Lechner         : AUTO-CI (C++ implementation), FIC-MRCC        
  Spencer Leger          : CASSCF response                               
  Dagmar Lenk            : GEPOL surface, SMD, ORCA-2-JSON               
  Dimitrios Liakos       : Extrapolation schemes; Compound Job, Property file
  Dimitrios Manganas     : Further ROCIS development; embedding schemes. LFT, Crystal Embedding 
  Dimitrios Pantazis     : SARC Basis sets                               
  Anastasios Papadopoulos: AUTO-CI, single reference methods and gradients 
  Taras Petrenko         : pre 6.0 DFT Hessian and TD-DFT gradient,  ECA, NRVS 
  Petra Pikulova         : Analytic Raman intensities                    
  Peter Pinski           : DLPNO-MP2, DLPNO-MP2 Gradient                 
  Shashank Vittal Rao    : ES-AILFT, MagRelax                            
  Christoph Reimann      : Effective Core Potentials                     
  Marius Retegan         : Local ZFS, SOC                                
  Christoph Riplinger    : Optimizer, TS searches, QM/MM, DLPNO-CCSD(T), (RO)-DLPNO pert. Triples 
  Michael Roemelt        : Original ROCIS implementation, recursive CI coupling coefficients
  Masaaki Saitow         : Open-shell DLPNO-CCSD energy and density      
  Barbara Sandhoefer     : DKH picture change effects                    
  Yorick L. A. Schmerwitz: GMF and freeze-and-release deltaSCF, NEB S-IDPP initial path                    
  Kantharuban Sivalingam : CASSCF convergence/infrastructure, NEVPT2, NEVPT3, NEVPT4(SD), FIC-MRCI and CEPA variants
  Bernardo de Souza      : ESD, SOC TD-DFT                               
  Georgi L. Stoychev     : AutoAux, RI-MP2 NMR, DLPNO-MP2 response, X2C  
  Van Anh Tran           : RI-MP2 g-tensors                              
  Willem Van den Heuvel  : Paramagnetic NMR                              
  Zikuan Wang            : NOTCH, Electric field optimization            
  Frank Wennmohs         : Technical directorship and infrastructure     
  Hang Xu                : AUTO-CI-Response properties                   
                                                                         
[FACCTs GmbH]                                                            
  Markus Bursch, Nicolas Foglia, Miquel Garcia-Rates, Ingolf Harden, Hagen Neugebauer, Anastasios Papadopoulos, 
  Christoph Riplinger, Bernardo de Souza, Georgi L. Stoychev                                                    
                                                                 
  APM, various basis sets, CI-OPT, improved COSX, DLPNO-Multilevel,           
  DOCKER, DRACO, updates on ESD, Fragmentator, GOAT, IRC, LR-CPCM, L-BFGS, MBIS, meta-GGA TD-DFT gradient, ML-optimized integration grids, 
  MM, NACMEs, nearIR, NEB, NEB-TS, NL-DFT gradient (VV10), 2- and 3-layer-ONIOM, interface openCOSMO-RS, QMMM,   
  Crystal-QMMM, RESP, rigid body optimization, SF, symmetry and pop. for TD-DFT, various functionals, SOLVATOR                                   
                                                                         
[Other institutions]                                                     
  V. Asgeirsson          : NEB                                           
  Christoph Bannwarth    : sTDA-DFT, sTD-DFT, PBEh-3c, B97-3c, D3        
  Giovanni Bistoni       : ETS/NOCV, ADLD/ADEX, COVALED                  
  Martin Brehm           : Molecular dynamics                            
  Ronald Cardenas        : ETS/NOCV                                      
  Martina Colucci        : COVALED                                       
  Sebastian Ehlert       : rSCAN, r2SCAN, r2SCAN-3c, D4, dhf basis sets  
  Marvin Friede          : D4 for Fr, Ra, Ac-Lr                          
  Lars Goerigk           : TD-DFT with DH, B97 family of functionals     
  Stefan Grimme          : VdW corrections, initial TS optimization, DFT functionals, gCP, sTDA/sTD-DF 
  Waldemar Hujo          : DFT-NL                                        
  H. Jonsson             : NEB                                           
  Holger Kruse           : gCP                                           
  Marcel Mueller         : wB97X-3c, vDZP basis set                      
  Hagen Neugebauer       : wr2SCAN, Native XTB                           
  Gianluca Regni         : ADLD/ADEX                                     
  Tobias Risthaus        : pre 6.0 range-separated hybrid DFT and stability analysis
  Lukas Wittmann         : regularized MP2, r2SCAN double-hybrids, wr2SCAN        
                                                                         
We gratefully acknowledge several colleagues who have allowed us to      
interface, adapt or use parts of their codes:                            
  Ed Valeev, F. Pavosevic, A. Kumar             : LibInt (2-el integral package), F12 methods 
  Garnet Chan, S. Sharma, J. Yang, R. Olivares  : DMRG                   
  Ulf Ekstrom                                   : XCFun DFT Library      
  Mihaly Kallay                                 : mrcc  (arbitrary order and MRCC methods)
  Frank Weinhold                                : gennbo (NPA and NBO analysis)           
  Simon Mueller                                 : openCOSMO-RS                            
  Christopher J. Cramer and Donald G. Truhlar   : smd solvation model                     
  S Lehtola, MJT Oliveira, MAL Marques          : LibXC Library                           
  Liviu Ungur et al                             : ANISO software                          


 Your calculation uses the libint2 library for the computation of 2-el integrals
 For citations please refer to: http://libint.valeyev.net

 Your ORCA version has been built with support for libXC version: 7.0.0
 For citations please refer to: https://libxc.gitlab.io

 This ORCA versions uses:
   CBLAS   interface :  Fast vector & matrix operations
   LAPACKE interface :  Fast linear algebra routines
   SCALAPACK package :  Parallel linear algebra routines
   Shared memory     :  Shared parallel matrices
   BLAS/LAPACK       :  OpenBLAS 0.3.29  USE64BITINT DYNAMIC_ARCH NO_AFFINITY Haswell SINGLE_THREADED
        Core in use  :  Haswell
   Copyright (c) 2011-2014, The OpenBLAS Project


  ***********************************
  * Starting time: Thu Aug 14 12:10:07 2025
  * Host name:     CHEMLAB02
  * Process ID:    1769301
  * Working dir.:  /home/vivek/mm-project/vivek/B97-D/d/1
  ***********************************



***************************************
The coordinates will be read from file: /home/vivek/mm-project/vivek/xtb-goat/d/D_CONF/1.xyz
***************************************


Your calculation utilizes empirical dispersion correction


Warning: RI is on but no J-basis has been assigned. Assigning Def2/J (nothing to worry about!)
================================================================================

----- Orbital basis set information -----
Your calculation utilizes the basis: 6-31G**
   H-He, Li-Ne : W. J. Hehre, R. Ditchfield and J.A. Pople, J. Chem. Phys. 56, 2257 (1972).
                 Note: He and Ne are unpublished basis sets taken from the Gaussian program.
                 Note: Li and B from J. D. Dill and J. A. Pople, J. Chem. Phys. 62, 2921 (1975).
   Na - Ar     : M. M. Francl, W. J. Pietro, W. J. Hehre, J. S. Binkley, M. S. Gordon, 
                 D. J. DeFrees and J. A. Pople, J. Chem. Phys. 77, 3654 (1982).
   K - Zn      : V. A. Rassolov, J. A. Pople, M. A. Ratner, and T. L. Windus, J. Chem. Phys. 109, 1223 (1998).

----- AuxJ basis set information -----
Your calculation utilizes the auxiliary basis: def2/J
   H-Rn: F. Weigend, Phys. Chem. Chem. Phys. 8, 1057 (2006).
   Fr-Lr: K. Eichkorn, F. Weigend, O. Treutler, R. Ahlrichs; Theor. Chem. Acc. 97, 119 (1997).

================================================================================
                                        WARNINGS
                       Please study these warnings very carefully!
================================================================================


INFO   : The exchange functional is Grimme's B97(-D)
         As described in S. Grimme, J. Comput. Chem. 27, 1787 (2006).
         Note that this functional defaults to a pure GGA. 

INFO   : The correlation functional is Grimme's B97(-D)
         As described in S. Grimme, J. Comput. Chem. 27, 1787 (2006).

================================================================================
                                       INPUT FILE
================================================================================
NAME = 1.inp
|  1> ! B97-D 6-31G** 
|  2> 
|  3> * xyzfile 0 1 /home/vivek/mm-project/vivek/xtb-goat/d/D_CONF/1.xyz
|  4> 
|  5>                          ****END OF INPUT****
================================================================================

                       ****************************
                       * Single Point Calculation *
                       ****************************

---------------------------------
CARTESIAN COORDINATES (ANGSTROEM)
---------------------------------
  C     -4.383114    1.357501    1.271349
  C     -3.935311    1.138097   -0.151622
  O     -4.400642    3.933498   -0.477047
  H     -2.687408    5.187029    0.484796
  O     -5.379758    0.539153    1.612005
  C     -2.806563    2.108175   -0.519457
  H     -3.593716    0.108646   -0.260199
  H     -4.798008    1.291261   -0.800910
  C     -3.293833    3.533434   -0.232492
  O     -3.916869    2.165306    2.030876
  N     -1.582192    1.729775    0.152881
  O     -2.336575    4.305567    0.283943
  H     -0.834355    2.367943   -0.095978
  H     -5.663949    0.707423    2.524632
  H     -2.630976    2.048661   -1.602293
  H     -1.716540    1.802853    1.156974

----------------------------
CARTESIAN COORDINATES (A.U.)
----------------------------
  NO LB      ZA    FRAG     MASS         X           Y           Z
   0 C     6.0000    0    12.011   -8.282886    2.565306    2.402501
   1 C     6.0000    0    12.011   -7.436660    2.150692   -0.286524
   2 O     8.0000    0    15.999   -8.316008    7.433234   -0.901488
   3 H     1.0000    0     1.008   -5.078465    9.802064    0.916131
   4 O     8.0000    0    15.999  -10.166269    1.018852    3.046248
   5 C     6.0000    0    12.011   -5.303636    3.983872   -0.981631
   6 H     1.0000    0     1.008   -6.791140    0.205311   -0.491706
   7 H     1.0000    0     1.008   -9.066921    2.440130   -1.513500
   8 C     6.0000    0    12.011   -6.224443    6.677222   -0.439346
   9 O     8.0000    0    15.999   -7.401810    4.091836    3.837800
  10 N     7.0000    0    14.007   -2.989909    3.268802    0.288904
  11 O     8.0000    0    15.999   -4.415486    8.136343    0.536574
  12 H     1.0000    0     1.008   -1.576702    4.474764   -0.181372
  13 H     1.0000    0     1.008  -10.703312    1.336835    4.770863
  14 H     1.0000    0     1.008   -4.971824    3.871408   -3.027894
  15 H     1.0000    0     1.008   -3.243790    3.406899    2.186365

--------------------------------
INTERNAL COORDINATES (ANGSTROEM)
--------------------------------
 C      0   0   0     0.000000000000     0.00000000     0.00000000
 C      1   0   0     1.507817001383     0.00000000     0.00000000
 O      2   1   0     2.852490213147    85.21699938     0.00000000
 H      3   2   1     2.330590214989   111.10590897    76.34942053
 O      1   2   3     1.333806146402   111.94194961   125.72119496
 C      2   1   3     1.533109312540   110.67156053    53.33165581
 H      2   1   3     1.090066963208   108.93455300   174.45954453
 H      2   1   3     1.090540926428   107.84861849   292.31508067
 C      3   2   1     1.202033173287    60.02772173    95.86632316
 O      1   2   3     1.202836389804   125.34644085   305.72724475
 N      6   2   1     1.447173257678   110.24173701    71.99991377
 O      4   3   2     0.969742487731    72.03550149    23.29387257
 H     11   6   2     1.014124529154   110.20274383   179.60033056
 H      5   1   2     0.970549872211   110.64531120   181.05326768
 H      6   2   1     1.098592628651   108.65580643   190.13694592
 H     11   6   2     1.015673641832   109.18179304   297.03093180

---------------------------
INTERNAL COORDINATES (A.U.)
---------------------------
 C      0   0   0     0.000000000000     0.00000000     0.00000000
 C      1   0   0     2.849361192685     0.00000000     0.00000000
 O      2   1   0     5.390425302538    85.21699938     0.00000000
 H      3   2   1     4.404177236725   111.10590897    76.34942053
 O      1   2   3     2.520528332441   111.94194961   125.72119496
 C      2   1   3     2.897156734064   110.67156053    53.33165581
 H      2   1   3     2.059928028099   108.93455300   174.45954453
 H      2   1   3     2.060823688782   107.84861849   292.31508067
 C      3   2   1     2.271513501401    60.02772173    95.86632316
 O      1   2   3     2.273031360644   125.34644085   305.72724475
 N      6   2   1     2.734761125347   110.24173701    71.99991377
 O      4   3   2     1.832547722239    72.03550149    23.29387257
 H     11   6   2     1.916417625793   110.20274383   179.60033056
 H      5   1   2     1.834073457791   110.64531120   181.05326768
 H      6   2   1     2.076039200895   108.65580643   190.13694592
 H     11   6   2     1.919345024505   109.18179304   297.03093180

---------------------
BASIS SET INFORMATION
---------------------
There are 4 groups of distinct atoms

 Group   1 Type C   : 10s4p1d contracted to 3s2p1d pattern {631/31/1}
 Group   2 Type O   : 10s4p1d contracted to 3s2p1d pattern {631/31/1}
 Group   3 Type H   : 4s1p contracted to 2s1p pattern {31/1}
 Group   4 Type N   : 10s4p1d contracted to 3s2p1d pattern {631/31/1}

Atom   0C    basis set group =>   1
Atom   1C    basis set group =>   1
Atom   2O    basis set group =>   2
Atom   3H    basis set group =>   3
Atom   4O    basis set group =>   2
Atom   5C    basis set group =>   1
Atom   6H    basis set group =>   3
Atom   7H    basis set group =>   3
Atom   8C    basis set group =>   1
Atom   9O    basis set group =>   2
Atom  10N    basis set group =>   4
Atom  11O    basis set group =>   2
Atom  12H    basis set group =>   3
Atom  13H    basis set group =>   3
Atom  14H    basis set group =>   3
Atom  15H    basis set group =>   3
---------------------------------
AUXILIARY/J BASIS SET INFORMATION
---------------------------------
There are 4 groups of distinct atoms

 Group   1 Type C   : 12s5p4d2f1g contracted to 6s4p3d1f1g pattern {711111/2111/211/2/1}
 Group   2 Type O   : 12s5p4d2f1g contracted to 6s4p3d1f1g pattern {711111/2111/211/2/1}
 Group   3 Type H   : 5s2p1d contracted to 3s1p1d pattern {311/2/1}
 Group   4 Type N   : 12s5p4d2f1g contracted to 6s4p3d1f1g pattern {711111/2111/211/2/1}

Atom   0C    basis set group =>   1
Atom   1C    basis set group =>   1
Atom   2O    basis set group =>   2
Atom   3H    basis set group =>   3
Atom   4O    basis set group =>   2
Atom   5C    basis set group =>   1
Atom   6H    basis set group =>   3
Atom   7H    basis set group =>   3
Atom   8C    basis set group =>   1
Atom   9O    basis set group =>   2
Atom  10N    basis set group =>   4
Atom  11O    basis set group =>   2
Atom  12H    basis set group =>   3
Atom  13H    basis set group =>   3
Atom  14H    basis set group =>   3
Atom  15H    basis set group =>   3
------------------------------------------------------------------------------
                             ORCA STARTUP CALCULATIONS
                           -- RI-GTO INTEGRALS CHOSEN --
------------------------------------------------------------------------------
------------------------------------------------------------------------------
                   ___                                                        
                  /   \      - P O W E R E D   B Y -                         
                 /     \                                                     
                 |  |  |   _    _      __       _____    __    __             
                 |  |  |  | |  | |    /  \     |  _  \  |  |  /  |          
                  \  \/   | |  | |   /    \    | | | |  |  | /  /          
                 / \  \   | |__| |  /  /\  \   | |_| |  |  |/  /          
                |  |  |   |  __  | /  /__\  \  |    /   |      \           
                |  |  |   | |  | | |   __   |  |    \   |  |\   \          
                \     /   | |  | | |  |  |  |  | |\  \  |  | \   \       
                 \___/    |_|  |_| |__|  |__|  |_| \__\ |__|  \__/        
                                                                              
                      - O R C A' S   B I G   F R I E N D -                    
                                      &                                       
                       - I N T E G R A L  F E E D E R -                       
                                                                              
 v1 FN, 2020, v2 2021, v3 2022-2024                                           
------------------------------------------------------------------------------


----------------------
SHARK INTEGRAL PACKAGE
----------------------

Number of atoms                             ...     16
Number of basis functions                   ...    161
Number of shells                            ...     75
Maximum angular momentum                    ...      2
Integral batch strategy                     ... SHARK/LIBINT Hybrid
RI-J (if used) integral strategy            ... SPLIT-RIJ (Revised 2003 algorithm where possible)
Printlevel                                  ...      1
Contraction scheme used                     ... SEGMENTED contraction
Prescreening option                         ... SCHWARTZ
   Thresh                                   ... 1.000e-10
   Tcut                                     ... 1.000e-11
   Tpresel                                  ... 1.000e-11 
Coulomb Range Separation                    ... NOT USED
Exchange Range Separation                   ... NOT USED
Multipole approximations                    ... NOT USED
Finite Nucleus Model                        ... NOT USED
CABS basis                                  ... NOT available
Auxiliary Coulomb fitting basis             ... AVAILABLE
   # of basis functions in Aux-J            ...    518
   # of shells in Aux-J                     ...    170
   Maximum angular momentum in Aux-J        ...      4
Auxiliary J/K fitting basis                 ... NOT available
Auxiliary Correlation fitting basis         ... NOT available
Auxiliary 'external' fitting basis          ... NOT available

Checking pre-screening integrals            ... done (  0.0 sec) Dimension = 75
   => SHARK Basis and OBASIS are compatible. Storing Pre-screening
Shell pair information
Shell pair cut-off parameter TPreSel        ...   1.0e-11
Total number of shell pairs                 ...      2850
Shell pairs after pre-screening             ...      2626
Total number of primitive shell pairs       ...     14745
Primitive shell pairs kept                  ...      8960
          la=0 lb=0:    777 shell pairs
          la=1 lb=0:    937 shell pairs
          la=1 lb=1:    308 shell pairs
          la=2 lb=0:    346 shell pairs
          la=2 lb=1:    214 shell pairs
          la=2 lb=2:     44 shell pairs

Checking whether 4 symmetric matrices of dimension 161 fit in memory
:Max Core in MB      =   4096.00
 MB in use           =      7.02
 MB left             =   4088.98
 MB needed           =      0.40
 Data fit in memory  = YES
Calculating RI/J V-Matrix + Cholesky decomp.... done (  0.0 sec)
Calculating Nuclear repulsion               ... done (  0.0 sec) ENN=    485.336435240437 Eh

Diagonalization of the overlap matrix:
Smallest eigenvalue                        ... 2.754e-03
Time for diagonalization                   ...    0.001 sec
Threshold for overlap eigenvalues          ... 1.000e-07
Number of eigenvalues below threshold      ... 0
Time for construction of square roots      ...    0.000 sec
Total time needed                          ...    0.002 sec

-------------------
DFT GRID GENERATION
-------------------

General Integration Accuracy     IntAcc      ... 4.388
Radial Grid Type                 RadialGrid  ... OptM3 with GC (2021)
Angular Grid (max. ang.)         AngularGrid ... 4 (Lebedev-302)
Angular grid pruning method      GridPruning ... 4 (adaptive)
Weight generation scheme         WeightScheme... mBecke (2022)
Basis function cutoff            BFCut       ... 1.0000e-10
Integration weight cutoff        WCut        ... 1.0000e-14
Partially contracted basis set               ... off
Rotationally invariant grid construction     ... off
Angular grids for H and He will be reduced by one unit

Total number of grid points                  ...    76923
Total number of batches                      ...     1210
Average number of points per batch           ...       63
Average number of grid points per atom       ...     4808
Grids setup in   0.3 sec
Initializing property integral containers    ... done (  0.0 sec)

SHARK setup successfully completed in   0.3 seconds

Maximum memory used throughout the entire STARTUP-calculation: 32.4 MB
-------------------------------------------------------------------------------
                                 ORCA GUESS
                   Start orbitals & Density for SCF / CASSCF
-------------------------------------------------------------------------------

------------
SCF SETTINGS
------------
Hamiltonian:
 Density Functional     Method          .... DFT(GTOs)
 Exchange Functional    Exchange        .... B97(D)
 Correlation Functional Correlation     .... B97(D)
 Gradients option       PostSCFGGA      .... off
 RI-approximation to the Coulomb term is turned on
   Number of AuxJ basis functions       .... 518


General Settings:
 Integral files         IntName         .... 1
 Hartree-Fock type      HFTyp           .... RHF
 Total Charge           Charge          ....    0
 Multiplicity           Mult            ....    1
 Number of Electrons    NEL             ....   70
 Basis Dimension        Dim             ....  161
 Nuclear Repulsion      ENuc            ....    485.3364352404 Eh

Convergence Acceleration:
 AO-DIIS                CNVDIIS         .... on
   Start iteration      DIISMaxIt       ....    12
   Startup error        DIISStart       ....  0.200000
   # of expansion vecs  DIISMaxEq       ....     5
   Bias factor          DIISBfac        ....   1.050
   Max. coefficient     DIISMaxC        ....  10.000
 MO-DIIS                CNVKDIIS        .... off
 Trust-Rad. Augm. Hess. CNVTRAH         .... auto
   Auto Start mean grad. ratio tolernc. ....  1.125000
   Auto Start start iteration           ....    50
   Auto Start num. interpolation iter.  ....    10
   Max. Number of Micro iterations      ....    24
   Max. Number of Macro iterations      .... Maxiter - #DIIS iter
   Number of Davidson start vectors     ....     2
   Converg. threshold    (grad. norm)   ....   5.000e-05
   Grad. Scal. Fac. for Micro threshold ....   0.100
   Minimum threshold for Micro iter.    ....   1.000e-02
   NR start threshold (gradient norm)   ....   1.000e-04
   Initial trust radius                 ....   0.400
   Minimum AH scaling param. (alpha)    ....   1.000
   Maximum AH scaling param. (alpha)    .... 1000.000
   Quad. conv. algorithm                .... NR
   White noise on init. David. guess    .... on
   Maximum white noise                  ....   0.010
   Pseudo random numbers                .... off
   Inactive MOs                         .... canonical
   Orbital update algorithm             .... Taylor
   Preconditioner                       .... Diag
   Full preconditioner red. dimension   ....   250
 SOSCF                 CNVSOSCF           .... on
   Start iteration     SOSCFMaxIt         ....   150
   Startup grad/error  SOSCFStart         ....  0.003300
   Hessian update      SOSCFHessUp        .... L-BFGS
   Autom. constraints  SOSCFAutoConstrain .... off
 Level Shifting         CNVShift        .... on
   Level shift para.    LevelShift      ....    0.2500
   Turn off err/grad.   ShiftErr        ....    0.0010
 Zerner damping         CNVZerner       .... off
 Static damping         CNVDamp         .... on
   Fraction old density DampFac         ....    0.7000
   Max. Damping (<1)    DampMax         ....    0.9800
   Min. Damping (>=0)   DampMin         ....    0.0000
   Turn off err/grad.   DampErr         ....    0.1000

SCF Procedure:
 Maximum # iterations   MaxIter         ....   125
 SCF integral mode      SCFMode         .... Direct
   Integral package                     .... SHARK and LIBINT hybrid scheme
 Reset frequency        DirectResetFreq ....    20
 Integral Threshold     Thresh          ....  1.000e-10 Eh
 Primitive CutOff       TCut            ....  1.000e-11 Eh

Convergence Tolerance:
 Convergence Check Mode ConvCheckMode   .... Total+1el-Energy
 Convergence forced     ConvForced      .... 0
 Energy Change          TolE            ....  1.000e-06 Eh
 1-El. energy change                    ....  1.000e-03 Eh
 Orbital Gradient       TolG            ....  5.000e-05
 Orbital Rotation angle TolX            ....  5.000e-05
 DIIS Error             TolErr          ....  1.000e-06

------------------------------
INITIAL GUESS: MODEL POTENTIAL
------------------------------
Loading Hartree-Fock densities                     ... done
Calculating cut-offs                               ... done
Initializing the effective Hamiltonian             ... done
Setting up the integral package (SHARK)            ... done
Starting the Coulomb interaction                   ... done (   0.0 sec)
Making the grid                                    ... done (   0.1 sec)
Mapping shells                                     ... done
Starting the XC term evaluation                    ... done (   0.1 sec)
  promolecular density results
     # of electrons  =     69.997318905
     EX              =    -61.074379455
     EC              =     -3.177799358
     EX+EC           =    -64.252178814
Transforming the Hamiltonian                       ... done (   0.0 sec)
Diagonalizing the Hamiltonian                      ... done (   0.0 sec)
Back transforming the eigenvectors                 ... done (   0.0 sec)
Now organizing SCF variables                       ... done
                      ------------------
                      INITIAL GUESS DONE (   0.2 sec)
                      ------------------
             **** ENERGY FILE WAS UPDATED (1.en.tmp) ****
Finished Guess after   0.2 sec
Maximum memory used throughout the entire GUESS-calculation: 11.7 MB

-------------------------------------------------------------------------------------------
                                      ORCA LEAN-SCF
                              memory conserving SCF solver
-------------------------------------------------------------------------------------------

----------------------------------------D-I-I-S--------------------------------------------
Iteration    Energy (Eh)           Delta-E    RMSDP     MaxDP     DIISErr   Damp  Time(sec)
-------------------------------------------------------------------------------------------
               ***  Starting incremental Fock matrix formation  ***
    1    -511.6142299568352314     0.00e+00  4.46e-03  1.07e-01  2.61e-01  0.700   0.4
    2    -511.7994198424610772    -1.85e-01  2.63e-03  5.71e-02  9.83e-02  0.700   0.4
                               ***Turning on AO-DIIS***
    3    -511.8519648982199328    -5.25e-02  9.23e-04  1.49e-02  3.08e-02  0.700   0.4
    4    -511.8882801193136061    -3.63e-02  1.19e-03  1.98e-02  1.68e-02  0.000   0.4
    5    -511.9741128987389516    -8.58e-02  4.37e-04  7.47e-03  1.17e-02  0.000   0.4
                              *** Initializing SOSCF ***
---------------------------------------S-O-S-C-F--------------------------------------
Iteration    Energy (Eh)           Delta-E    RMSDP     MaxDP     MaxGrad    Time(sec)
--------------------------------------------------------------------------------------
    6    -511.9749366798931192    -8.24e-04  1.54e-04  2.29e-03  3.29e-03     0.4
               *** Restarting incremental Fock matrix formation ***
    7    -511.9749976255872639    -6.09e-05  1.32e-04  3.21e-03  7.57e-04     0.4
    8    -511.9749758702863005     2.18e-05  7.51e-05  2.45e-03  2.04e-03     0.3
    9    -511.9750067243912213    -3.09e-05  4.85e-05  8.56e-04  2.89e-04     0.3
   10    -511.9750043151810246     2.41e-06  2.84e-05  5.40e-04  3.48e-04     0.3
   11    -511.9750082852642095    -3.97e-06  1.10e-05  2.50e-04  5.20e-05     0.3
   12    -511.9750081064407254     1.79e-07  6.91e-06  1.65e-04  1.14e-04     0.3
                 **** Energy Check signals convergence ****

               *****************************************************
               *                     SUCCESS                       *
               *           SCF CONVERGED AFTER  12 CYCLES          *
               *****************************************************

             **** ENERGY FILE WAS UPDATED (1.en.tmp) ****

----------------
TOTAL SCF ENERGY
----------------

Total Energy       :       -511.97500835880413 Eh          -13931.54824 eV

Components:
Nuclear Repulsion  :        485.33643524043742 Eh           13206.67582 eV
Electronic Energy  :       -997.31144359924156 Eh          -27138.22406 eV
One Electron Energy:      -1664.09763189927639 Eh          -45282.39868 eV
Two Electron Energy:        666.78618830003484 Eh           18144.17462 eV

Virial components:
Potential Energy   :      -1021.40402162394366 Eh          -27793.81644 eV
Kinetic Energy     :        509.42901326513959 Eh           13862.26820 eV
Virial Ratio       :          2.00499774262433

DFT components:
N(Alpha)           :       35.000026584089 electrons
N(Beta)            :       35.000026584089 electrons
N(Total)           :       70.000053168177 electrons
E(X)               :      -62.263322380966 Eh       
E(C)               :       -3.165562222096 Eh       
E(XC)              :      -65.428884603062 Eh       

---------------
SCF CONVERGENCE
---------------

  Last Energy change         ...   -1.7882e-07  Tolerance :   1.0000e-06
  Last MAX-Density change    ...    1.6468e-04  Tolerance :   1.0000e-05
  Last RMS-Density change    ...    6.9111e-06  Tolerance :   1.0000e-06
  Last DIIS Error            ...    3.2934e-03  Tolerance :   1.0000e-06
  Last Orbital Gradient      ...    1.1364e-04  Tolerance :   5.0000e-05
  Last Orbital Rotation      ...    1.4789e-04  Tolerance :   5.0000e-05


----------------
ORBITAL ENERGIES
----------------

  NO   OCC          E(Eh)            E(eV) 
   0   2.0000     -18.819073      -512.0930 
   1   2.0000     -18.809421      -511.8304 
   2   2.0000     -18.761978      -510.5394 
   3   2.0000     -18.745145      -510.0813 
   4   2.0000     -13.982367      -380.4795 
   5   2.0000     -10.041243      -273.2361 
   6   2.0000     -10.024290      -272.7748 
   7   2.0000      -9.953216      -270.8408 
   8   2.0000      -9.925420      -270.0844 
   9   2.0000      -1.029046       -28.0018 
  10   2.0000      -1.016353       -27.6564 
  11   2.0000      -0.940896       -25.6031 
  12   2.0000      -0.925978       -25.1972 
  13   2.0000      -0.816361       -22.2143 
  14   2.0000      -0.705309       -19.1924 
  15   2.0000      -0.628450       -17.1010 
  16   2.0000      -0.576927       -15.6990 
  17   2.0000      -0.529041       -14.3959 
  18   2.0000      -0.466829       -12.7031 
  19   2.0000      -0.454561       -12.3692 
  20   2.0000      -0.430530       -11.7153 
  21   2.0000      -0.419362       -11.4114 
  22   2.0000      -0.411934       -11.2093 
  23   2.0000      -0.410941       -11.1823 
  24   2.0000      -0.382175       -10.3995 
  25   2.0000      -0.360444        -9.8082 
  26   2.0000      -0.344726        -9.3805 
  27   2.0000      -0.334621        -9.1055 
  28   2.0000      -0.326655        -8.8887 
  29   2.0000      -0.319461        -8.6930 
  30   2.0000      -0.281516        -7.6604 
  31   2.0000      -0.265316        -7.2196 
  32   2.0000      -0.240131        -6.5343 
  33   2.0000      -0.232880        -6.3370 
  34   2.0000      -0.181409        -4.9364 
  35   0.0000      -0.021733        -0.5914 
  36   0.0000      -0.008249        -0.2245 
  37   0.0000       0.051092         1.3903 
  38   0.0000       0.053046         1.4435 
  39   0.0000       0.084557         2.3009 
  40   0.0000       0.110414         3.0045 
  41   0.0000       0.125534         3.4159 
  42   0.0000       0.151859         4.1323 
  43   0.0000       0.155742         4.2379 
  44   0.0000       0.179404         4.8818 
  45   0.0000       0.194534         5.2935 
*Only the first 10 virtual orbitals were printed.

                    ********************************
                    * MULLIKEN POPULATION ANALYSIS *
                    ********************************

-----------------------
MULLIKEN ATOMIC CHARGES
-----------------------
   0 C :    0.526457
   1 C :   -0.262431
   2 O :   -0.427373
   3 H :    0.319740
   4 O :   -0.455271
   5 C :   -0.064156
   6 H :    0.158072
   7 H :    0.163678
   8 C :    0.527974
   9 O :   -0.419179
  10 N :   -0.568770
  11 O :   -0.460193
  12 H :    0.247225
  13 H :    0.321664
  14 H :    0.137774
  15 H :    0.254789
Sum of atomic charges:   -0.0000000

--------------------------------
MULLIKEN REDUCED ORBITAL CHARGES
--------------------------------
  0 C s       :     2.973048  s :     2.973048
      pz      :     0.893535  p :     2.373205
      px      :     0.744263
      py      :     0.735407
      dz2     :     0.032392  d :     0.127290
      dxz     :     0.020181
      dyz     :     0.023160
      dx2y2   :     0.024761
      dxy     :     0.026797

  1 C s       :     3.240454  s :     3.240454
      pz      :     0.959523  p :     2.988709
      px      :     1.002105
      py      :     1.027082
      dz2     :     0.008767  d :     0.033268
      dxz     :     0.008255
      dyz     :     0.002832
      dx2y2   :     0.007537
      dxy     :     0.005878

  2 O s       :     3.856170  s :     3.856170
      pz      :     1.465358  p :     4.543135
      px      :     1.383249
      py      :     1.694529
      dz2     :     0.003105  d :     0.028068
      dxz     :     0.008646
      dyz     :     0.001584
      dx2y2   :     0.007639
      dxy     :     0.007094

  3 H s       :     0.642209  s :     0.642209
      pz      :     0.009634  p :     0.038051
      px      :     0.009336
      py      :     0.019081

  4 O s       :     3.828852  s :     3.828852
      pz      :     1.418014  p :     4.603422
      px      :     1.526661
      py      :     1.658748
      dz2     :     0.006646  d :     0.022997
      dxz     :     0.002566
      dyz     :     0.003006
      dx2y2   :     0.005083
      dxy     :     0.005696

  5 C s       :     3.207703  s :     3.207703
      pz      :     1.024798  p :     2.799298
      px      :     0.862084
      py      :     0.912416
      dz2     :     0.014468  d :     0.057155
      dxz     :     0.009419
      dyz     :     0.004356
      dx2y2   :     0.012657
      dxy     :     0.016256

  6 H s       :     0.830131  s :     0.830131
      pz      :     0.002566  p :     0.011797
      px      :     0.002989
      py      :     0.006242

  7 H s       :     0.824449  s :     0.824449
      pz      :     0.004060  p :     0.011873
      px      :     0.005104
      py      :     0.002710

  8 C s       :     2.979756  s :     2.979756
      pz      :     0.765828  p :     2.366782
      px      :     0.735656
      py      :     0.865297
      dz2     :     0.012158  d :     0.125488
      dxz     :     0.027335
      dyz     :     0.010352
      dx2y2   :     0.031594
      dxy     :     0.044049

  9 O s       :     3.867369  s :     3.867369
      pz      :     1.561714  p :     4.523704
      px      :     1.550038
      py      :     1.411952
      dz2     :     0.005820  d :     0.028106
      dxz     :     0.005096
      dyz     :     0.006585
      dx2y2   :     0.006122
      dxy     :     0.004484

 10 N s       :     3.583099  s :     3.583099
      pz      :     1.176828  p :     3.957475
      px      :     1.120649
      py      :     1.659998
      dz2     :     0.009908  d :     0.028197
      dxz     :     0.003133
      dyz     :     0.002719
      dx2y2   :     0.003001
      dxy     :     0.009436

 11 O s       :     3.822969  s :     3.822969
      pz      :     1.696082  p :     4.614140
      px      :     1.614463
      py      :     1.303595
      dz2     :     0.003664  d :     0.023083
      dxz     :     0.005088
      dyz     :     0.001281
      dx2y2   :     0.005508
      dxy     :     0.007542

 12 H s       :     0.728797  s :     0.728797
      pz      :     0.005358  p :     0.023977
      px      :     0.008976
      py      :     0.009643

 13 H s       :     0.640333  s :     0.640333
      pz      :     0.020212  p :     0.038003
      px      :     0.009202
      py      :     0.008589

 14 H s       :     0.851194  s :     0.851194
      pz      :     0.006482  p :     0.011032
      px      :     0.001994
      py      :     0.002556

 15 H s       :     0.720961  s :     0.720961
      pz      :     0.011913  p :     0.024250
      px      :     0.004821
      py      :     0.007517



                     *******************************
                     * LOEWDIN POPULATION ANALYSIS *
                     *******************************

----------------------
LOEWDIN ATOMIC CHARGES
----------------------
   0 C :    0.127694
   1 C :   -0.142248
   2 O :   -0.228691
   3 H :    0.183577
   4 O :   -0.129586
   5 C :   -0.045122
   6 H :    0.101508
   7 H :    0.104894
   8 C :    0.103095
   9 O :   -0.218250
  10 N :   -0.253586
  11 O :   -0.134720
  12 H :    0.127031
  13 H :    0.185085
  14 H :    0.091694
  15 H :    0.127625

-------------------------------
LOEWDIN REDUCED ORBITAL CHARGES
-------------------------------
  0 C s       :     2.843975  s :     2.843975
      pz      :     0.999511  p :     2.727128
      px      :     0.851152
      py      :     0.876465
      dz2     :     0.078295  d :     0.301204
      dxz     :     0.044606
      dyz     :     0.054826
      dx2y2   :     0.054183
      dxy     :     0.069294

  1 C s       :     2.908243  s :     2.908243
      pz      :     1.036901  p :     3.157953
      px      :     1.056053
      py      :     1.065000
      dz2     :     0.022109  d :     0.076051
      dxz     :     0.018437
      dyz     :     0.006473
      dx2y2   :     0.014304
      dxy     :     0.014728

  2 O s       :     3.552137  s :     3.552137
      pz      :     1.452654  p :     4.618317
      px      :     1.475723
      py      :     1.689941
      dz2     :     0.007312  d :     0.058236
      dxz     :     0.013913
      dyz     :     0.002374
      dx2y2   :     0.017395
      dxy     :     0.017244

  3 H s       :     0.700464  s :     0.700464
      pz      :     0.027228  p :     0.115960
      px      :     0.028580
      py      :     0.060152

  4 O s       :     3.467679  s :     3.467679
      pz      :     1.422394  p :     4.611294
      px      :     1.534585
      py      :     1.654315
      dz2     :     0.014657  d :     0.050613
      dxz     :     0.008263
      dyz     :     0.005621
      dx2y2   :     0.008261
      dxy     :     0.013810

  5 C s       :     2.881736  s :     2.881736
      pz      :     1.050489  p :     3.033543
      px      :     0.970220
      py      :     1.012835
      dz2     :     0.031210  d :     0.129843
      dxz     :     0.021191
      dyz     :     0.008944
      dx2y2   :     0.028971
      dxy     :     0.039526

  6 H s       :     0.856813  s :     0.856813
      pz      :     0.007708  p :     0.041679
      px      :     0.009091
      py      :     0.024880

  7 H s       :     0.853152  s :     0.853152
      pz      :     0.014503  p :     0.041954
      px      :     0.019658
      py      :     0.007792

  8 C s       :     2.858803  s :     2.858803
      pz      :     0.806168  p :     2.738039
      px      :     0.966076
      py      :     0.965796
      dz2     :     0.027891  d :     0.300063
      dxz     :     0.064118
      dyz     :     0.021536
      dx2y2   :     0.078487
      dxy     :     0.108030

  9 O s       :     3.553005  s :     3.553005
      pz      :     1.598297  p :     4.607187
      px      :     1.551975
      py      :     1.456916
      dz2     :     0.010619  d :     0.058058
      dxz     :     0.009689
      dyz     :     0.017645
      dx2y2   :     0.009696
      dxy     :     0.010410

 10 N s       :     3.190181  s :     3.190181
      pz      :     1.203593  p :     4.005650
      px      :     1.167753
      py      :     1.634303
      dz2     :     0.019950  d :     0.057755
      dxz     :     0.010248
      dyz     :     0.003748
      dx2y2   :     0.006624
      dxy     :     0.017185

 11 O s       :     3.466431  s :     3.466431
      pz      :     1.671100  p :     4.616938
      px      :     1.625782
      py      :     1.320056
      dz2     :     0.006910  d :     0.051351
      dxz     :     0.008901
      dyz     :     0.005336
      dx2y2   :     0.012913
      dxy     :     0.017291

 12 H s       :     0.793607  s :     0.793607
      pz      :     0.014526  p :     0.079361
      px      :     0.031160
      py      :     0.033675

 13 H s       :     0.699443  s :     0.699443
      pz      :     0.064599  p :     0.115472
      px      :     0.025986
      py      :     0.024887

 14 H s       :     0.869720  s :     0.869720
      pz      :     0.025141  p :     0.038586
      px      :     0.006309
      py      :     0.007136

 15 H s       :     0.791388  s :     0.791388
      pz      :     0.045647  p :     0.080986
      px      :     0.012826
      py      :     0.022513



                      *****************************
                      * MAYER POPULATION ANALYSIS *
                      *****************************

  NA   - Mulliken gross atomic population
  ZA   - Total nuclear charge
  QA   - Mulliken gross atomic charge
  VA   - Mayer's total valence
  BVA  - Mayer's bonded valence
  FA   - Mayer's free valence

  ATOM       NA         ZA         QA         VA         BVA        FA
  0 C      5.4735     6.0000     0.5265     3.9808     3.9808     0.0000
  1 C      6.2624     6.0000    -0.2624     3.8112     3.8112     0.0000
  2 O      8.4274     8.0000    -0.4274     2.0837     2.0837    -0.0000
  3 H      0.6803     1.0000     0.3197     0.9170     0.9170     0.0000
  4 O      8.4553     8.0000    -0.4553     2.0529     2.0529     0.0000
  5 C      6.0642     6.0000    -0.0642     3.8814     3.8814     0.0000
  6 H      0.8419     1.0000     0.1581     0.9528     0.9528    -0.0000
  7 H      0.8363     1.0000     0.1637     0.9536     0.9536    -0.0000
  8 C      5.4720     6.0000     0.5280     3.9554     3.9554     0.0000
  9 O      8.4192     8.0000    -0.4192     2.1050     2.1050    -0.0000
 10 N      7.5688     7.0000    -0.5688     2.8837     2.8837    -0.0000
 11 O      8.4602     8.0000    -0.4602     2.0628     2.0628     0.0000
 12 H      0.7528     1.0000     0.2472     0.9253     0.9253     0.0000
 13 H      0.6783     1.0000     0.3217     0.9141     0.9141    -0.0000
 14 H      0.8622     1.0000     0.1378     0.9466     0.9466     0.0000
 15 H      0.7452     1.0000     0.2548     0.9335     0.9335    -0.0000

  Mayer bond orders larger than 0.100000
B(  0-C ,  1-C ) :   0.9573 B(  0-C ,  4-O ) :   1.1060 B(  0-C ,  9-O ) :   1.8698 
B(  1-C ,  5-C ) :   0.9712 B(  1-C ,  6-H ) :   0.9242 B(  1-C ,  7-H ) :   0.9212 
B(  2-O ,  8-C ) :   1.8884 B(  3-H , 11-O ) :   0.8527 B(  4-O , 13-H ) :   0.8512 
B(  5-C ,  8-C ) :   0.8900 B(  5-C , 10-N ) :   1.0467 B(  5-C , 14-H ) :   0.9270 
B(  8-C , 11-O ) :   1.1039 B( 10-N , 12-H ) :   0.9047 B( 10-N , 15-H ) :   0.8916 


-------
TIMINGS
-------

Total SCF time: 0 days 0 hours 0 min 4 sec 

Total time                  ....       4.569 sec
Sum of individual times     ....       4.257 sec  ( 93.2%)

SCF preparation             ....       0.025 sec  (  0.5%)
Fock matrix formation       ....       4.193 sec  ( 91.8%)
  Startup                   ....       0.001 sec  (  0.0% of F)
  Split-RI-J                ....       1.412 sec  ( 33.7% of F)
  XC integration            ....       3.077 sec  ( 73.4% of F)
    XC Preparation          ....       0.000 sec  (  0.0% of XC)
    Basis function eval.    ....       1.065 sec  ( 34.6% of XC)
    Density eval.           ....       0.654 sec  ( 21.3% of XC)
    XC-Functional eval.     ....       0.585 sec  ( 19.0% of XC)
    XC-Potential eval.      ....       0.687 sec  ( 22.3% of XC)
Diagonalization             ....       0.000 sec  (  0.0%)
Density matrix formation    ....       0.003 sec  (  0.1%)
Total Energy calculation    ....       0.001 sec  (  0.0%)
Population analysis         ....       0.002 sec  (  0.0%)
Orbital Transformation      ....       0.004 sec  (  0.1%)
Orbital Orthonormalization  ....       0.000 sec  (  0.0%)
DIIS solution               ....       0.018 sec  (  0.4%)
SOSCF solution              ....       0.011 sec  (  0.2%)
Finished LeanSCF after   4.6 sec

Maximum memory used throughout the entire LEANSCF-calculation: 17.5 MB



-------------------------------------------------------------------------------
                          DFT DISPERSION CORRECTION                            
-------------------------------------------------------------------------------
Active option DFTDOPT                   ...         2   
Final C6-coefficient scaling factor     ...     1.250
Final VDW-radii scaling factor          ...     1.100
Damping factor alpha                    ...    20.000
-------------------------   ----------------
Dispersion correction           -0.020356741
-------------------------   ----------------


-------------------------   --------------------
FINAL SINGLE POINT ENERGY      -511.995365099539
-------------------------   --------------------


------------------------------------------------------------------------------
                              ORCA PROPERTY CALCULATIONS
------------------------------------------------------------------------------

GBWName                                 ... 1.gbw
Number of atoms                         ...     16
Number of basis functions               ...    161
Max core memory                         ...   4096 MB

Electric properties:
Dipole moment                           ... YES
Quadrupole moment                       ...  NO
Static polarizability (Dipole/Dipole)   ...  NO
Static polarizability (Dipole/Quad.)    ...  NO
Static polarizability (Quad./Quad.)     ...  NO
Static polarizability (Velocity)        ...  NO
Static hyperpolarizability              ...  NO

Atomic electric properties:
Dipole moment                           ...  NO
Quadrupole moment                       ...  NO
Static polarizability                   ...  NO

Choice of electric origin               ... Center of mass
Position of electric origin             ...    -6.729205     4.410762     0.896855

General magnetic properties:
Magnetizability                         ...  NO

EPR properties:
g-Tensor (aka g-matrix)                 ...  NO
Zero-Field splitting spin-orbit         ...  NO
Zero-field splitting spin-spin          ...  NO
Hyperfine couplings                     ...  NO (   0 nuclei)
Quadrupole couplings                    ...  NO (   0 nuclei)
Contact density                         ...  NO (   0 nuclei)

NMR properties:
Chemical shifts                         ...  NO (   0 nuclei)
Spin-rotation constants                 ...  NO (   0 nuclei)
Spin-spin couplings                     ...  NO (   0 nuclei,    0 pairs)

Choice of magnetic origin               ... GIAO
Position of magnetic origin             ...     0.000000     0.000000     0.000000

Properties with geometric perturbations:
SCF Hessian                             ...  NO
IR spectrum                             ...  NO
VCD spectrum                            ...  NO
X-ray spectroscopy properties:
SCF XES/XAS/RIXS spectra                ...  NO

SCF SOC stabilization energy            ...  NO
Diagonal Born-Oppenheimer correction    ...  NO

-------------
DIPOLE MOMENT
-------------

Method             : SCF
Type of density    : Electron Density
Multiplicity       :   1
Irrep              :   0
Energy             :  -511.9750083588041321 Eh
Basis              : AO
                                X                 Y                 Z
Electronic contribution:     -2.684292658       2.564960492       1.992334710
Nuclear contribution   :      2.800491701      -2.629631575      -1.775570441
                        -----------------------------------------
Total Dipole Moment    :      0.116199042      -0.064671083       0.216764269
                        -----------------------------------------
Magnitude (a.u.)       :      0.254305554
Magnitude (Debye)      :      0.646393349



--------------------
Rotational spectrum 
--------------------
 
Rotational constants in cm-1:             0.085711             0.042228             0.037461 
Rotational constants in MHz :          2569.557142          1265.963072          1123.052396 

Dipole components along the rotational axes: 
x,y,z [a.u.] :     0.071914     0.107697    -0.218863 
x,y,z [Debye]:     0.182791     0.273744    -0.556306 

 

Dipole moment calculation done in   0.0 sec 

Maximum memory used throughout the entire PROP-calculation: 10.0 MB

--------------------------------
SUGGESTED CITATIONS FOR THIS RUN
--------------------------------

Below you find a list of papers that are relevant to this ORCA run
We neither can nor want to force you to cite these papers, but we appreciate if you do
You receive ORCA, which is the product of decades of hard work by many enthusiastic individuals, for free
The only thing we kindly ask in return is that you cite our papers,
We deeply appreciate it, if you show your appreciation for ORCA by not just citing the generic ORCA reference.

Please note that relegating all ORCA citations to the supporting information does *not* help us.
SI sections are not indexed - citations you put there will not count into any citation statistics
But we need these citations in order to attract the funding resources that allow us to do what we are doing

Therefore, if you are a happy ORCA user, please consider citing a few of the papers listed below in the main body of your paper

In addition to the list printed below, the program has created the file 1.bibtex that contains the list in bibtex format
You can import this file easily into all common literature databanks and citation aid programs


List of essential papers. We consider these as the minimum necessary citations

  1. Neese, F.
     Software update: the ORCA program system, version 6.0
     WIRES Comput. Molec. Sci. 2025 15(1), e70019
     doi.org/10.1002/wcms.7019

List of papers to cite with high priority. The work reported in these papers was absolutely
necessary for this run to complete.
Our perspective: the developers of density functionals and basis sets usually get cited in chemistry papers
Good! But without the algorithms to do something with them, the functionals or basis sets would not do anything.
Hence, in our opinion, the algorithm design and method developments papers are equally worthy of getting cited

  1. Neese, F.
     An improvement of the resolution of the identity approximation for the formation of the Coulomb matrix
     J. Comp. Chem. 2003 24(14), 1740-1747
     doi.org/10.1002/jcc.10318
  2. Grimme, S.
     Semiempirical GGA-type density functional constructed with a long-range dispersion correction
     J.Comput.Chem. 2006 27(15), 1787-1799
     doi.org/10.1002/jcc.20495
  3. Neese, F.
     The SHARK Integral Generation and Digestion System
     J. Comp. Chem. 2022 44(3), 381
     doi.org/10.1002/jcc.26942

List of suggested additional citations. These are papers that are important in the 'surrounding' of 
of this run, or papers that preceded the highly important papers. If you like your results we are grateful for a citation.

  1. Neese, F.
     The ORCA program system
     WIRES Comput. Molec. Sci. 2012 2(1), 73-78
     doi.org/10.1002/wcms.81
  2. Neese, F.
     Software update: the ORCA program system, version 4.0
     WIRES Comput. Molec. Sci. 2018 8(1), 1-6
     doi.org/10.1002/wcms.1327
  3. Neese, F.; Wennmohs, F.; Becker, U.; Riplinger, C.
     The ORCA quantum chemistry program package
     J. Chem. Phys. 2020 152(22), 224108
     doi.org/10.1063/5.0004608
  4. Neese, F.
     Software update: The ORCA program system—Version 5.0
     WIRES Comput. Molec. Sci. 2022 12(1), e1606
     doi.org/10.1002/wcms.1606

List of optional additional citations

  1. Neese, F.
     Approximate second-order SCF convergence for spin unrestricted wavefunctions
     Chem. Phys. Lett. 2000 325(1-3), 93-98
     doi.org/10.1016/s0009-2614(00)00662-x

Timings for individual modules:

Sum of individual times          ...        5.196 sec (=   0.087 min)
Startup calculation              ...        0.354 sec (=   0.006 min)   6.8 %
SCF iterations                   ...        4.811 sec (=   0.080 min)  92.6 %
Property calculations            ...        0.031 sec (=   0.001 min)   0.6 %
                             ****ORCA TERMINATED NORMALLY****
TOTAL RUN TIME: 0 days 0 hours 0 minutes 5 seconds 237 msec
