
                                 *****************
                                 * O   R   C   A *
                                 *****************

                                            #,                                       
                                            ###                                      
                                            ####                                     
                                            #####                                    
                                            ######                                   
                                           ########,                                 
                                     ,,################,,,,,                         
                               ,,#################################,,                 
                          ,,##########################################,,             
                       ,#########################################, ''#####,          
                    ,#############################################,,   '####,        
                  ,##################################################,,,,####,       
                ,###########''''           ''''###############################       
              ,#####''   ,,,,##########,,,,          '''####'''          '####       
            ,##' ,,,,###########################,,,                        '##       
           ' ,,###''''                  '''############,,,                           
         ,,##''                                '''############,,,,        ,,,,,,###''
      ,#''                                            '''#######################'''  
     '                                                          ''''####''''         
             ,#######,   #######,   ,#######,      ##                                
            ,#'     '#,  ##    ##  ,#'     '#,    #''#        ,####,    ,#,          
            ##       ##  ##   ,#'  ##            #'  '#       #'       ,# #          
            ##       ##  #######   ##           ,######,      #####,      #          
            '#,     ,#'  ##    ##  '#,     ,#' ,#      #,     #,   #      #          
             '#######'   ##     ##  '#######'  #'      '#     '####' #    #          



                #########################################################
                #                        -***-                          #
                #          Department of theory and spectroscopy        #
                #                                                       #
                #                      Frank Neese                      #
                #                                                       #
                #     Directorship, Architecture, Infrastructure        #
                #                    SHARK, DRIVERS                     #
                #        Core code/Algorithms in most modules           #
                #                                                       #
                #        Max Planck Institute fuer Kohlenforschung      #
                #                Kaiser Wilhelm Platz 1                 #
                #                 D-45470 Muelheim/Ruhr                 #
                #                      Germany                          #
                #                                                       #
                #                  All rights reserved                  #
                #                        -***-                          #
                #########################################################


                         Program Version 6.1.0  -  RELEASE   -
                                (GIT: $679e74b$)
                          ($2025-06-10 18:02:51 +0200$)


 With contributions from (in alphabetic order):
[Max-Planck-Institut fuer Kohlenforschung]                               
  Daniel Aravena         : Magnetic Suceptibility                        
  Michael Atanasov       : Ab Initio Ligand Field Theory (pilot matlab implementation)
  Alexander A. Auer      : GIAO ZORA, VPT2 properties, NMR spectrum      
  Ute Becker             : All parallelization in ORCA, NUMFREQ, NUMCALC 
  Giovanni Bistoni       : ED, misc. LED, open-shell LED, HFLD           
  Dmytro Bykov           : pre 5.0 version of the SCF Hessian            
  Marcos Casanova-Páez   : Triplet and SCS-CIS(D). UHF-(DLPNO)-IP/EA/STEOM-CCSD. UHF-CVS-IP/STEOM-CCSD   
  Vijay G. Chilkuri      : MRCI spin determinant printing, contributions to CSF-ICE 
  Pauline Colinet        : FMM embedding                                 
  Dipayan Datta          : RHF DLPNO-CCSD density                        
  Achintya Kumar Dutta   : EOM-CC, STEOM-CC                              
  Nicolas Foglia         : Exact transition moments, OPA infrastructure, MCD improvements    
  Dmitry Ganyushin       : Spin-Orbit,Spin-Spin,Magnetic field MRCI      
  Miquel Garcia-Rates    : C-PCM and meta-GGA Hessian, CCSD/C-PCM, Gaussian charge scheme 
  Tiago L. C. Gouveia    : GS-ROHF, GS-ROCIS                             
  Yang Guo               : DLPNO-NEVPT2, F12-NEVPT2, CIM, IAO-localization        
  Andreas Hansen         : Spin unrestricted coupled pair/coupled cluster methods 
  Ingolf Harden          : AUTO-CI MPn and infrastructure                
  Benjamin Helmich-Paris : MC-RPA, TRAH-(SCF,CASSCF), AVAS, COSX integrals, SCF dyn. polar., MC-PDFT, srDFT 
  Lee Huntington         : MR-EOM, pCC                                   
  Robert Izsak           : Overlap fitted RIJCOSX, COSX-SCS-MP3, EOM     
  Riya Kayal             : Wick's Theorem for AUTO-CI, AUTO-CI UHF-CCSDT 
  Emily Kempfer          : AUTO-CI RHF CISDT and CCSDT, approximate NEVPT4
  Christian Kollmar      : KDIIS, OOCD, Brueckner-CCSD(T), CCSD density, CASPT2, CASPT2-K, improved NEVPT2 
  Axel Koslowski         : Symmetry handling                             
  Simone Kossmann        : meta-GGA functionals, TD-DFT gradient, OOMP2, (MP2 Hessian; deprecated post 5.0) 
  Lucas Lang             : DCDCAS, Hyperfine gauge corrections, ICE-SOC+SSC
  Marvin Lechner         : AUTO-CI (C++ implementation), FIC-MRCC        
  Spencer Leger          : CASSCF response                               
  Dagmar Lenk            : GEPOL surface, SMD, ORCA-2-JSON               
  Dimitrios Liakos       : Extrapolation schemes; Compound Job, Property file
  Dimitrios Manganas     : Further ROCIS development; embedding schemes. LFT, Crystal Embedding 
  Dimitrios Pantazis     : SARC Basis sets                               
  Anastasios Papadopoulos: AUTO-CI, single reference methods and gradients 
  Taras Petrenko         : pre 6.0 DFT Hessian and TD-DFT gradient,  ECA, NRVS 
  Petra Pikulova         : Analytic Raman intensities                    
  Peter Pinski           : DLPNO-MP2, DLPNO-MP2 Gradient                 
  Shashank Vittal Rao    : ES-AILFT, MagRelax                            
  Christoph Reimann      : Effective Core Potentials                     
  Marius Retegan         : Local ZFS, SOC                                
  Christoph Riplinger    : Optimizer, TS searches, QM/MM, DLPNO-CCSD(T), (RO)-DLPNO pert. Triples 
  Michael Roemelt        : Original ROCIS implementation, recursive CI coupling coefficients
  Masaaki Saitow         : Open-shell DLPNO-CCSD energy and density      
  Barbara Sandhoefer     : DKH picture change effects                    
  Yorick L. A. Schmerwitz: GMF and freeze-and-release deltaSCF, NEB S-IDPP initial path                    
  Kantharuban Sivalingam : CASSCF convergence/infrastructure, NEVPT2, NEVPT3, NEVPT4(SD), FIC-MRCI and CEPA variants
  Bernardo de Souza      : ESD, SOC TD-DFT                               
  Georgi L. Stoychev     : AutoAux, RI-MP2 NMR, DLPNO-MP2 response, X2C  
  Van Anh Tran           : RI-MP2 g-tensors                              
  Willem Van den Heuvel  : Paramagnetic NMR                              
  Zikuan Wang            : NOTCH, Electric field optimization            
  Frank Wennmohs         : Technical directorship and infrastructure     
  Hang Xu                : AUTO-CI-Response properties                   
                                                                         
[FACCTs GmbH]                                                            
  Markus Bursch, Nicolas Foglia, Miquel Garcia-Rates, Ingolf Harden, Hagen Neugebauer, Anastasios Papadopoulos, 
  Christoph Riplinger, Bernardo de Souza, Georgi L. Stoychev                                                    
                                                                 
  APM, various basis sets, CI-OPT, improved COSX, DLPNO-Multilevel,           
  DOCKER, DRACO, updates on ESD, Fragmentator, GOAT, IRC, LR-CPCM, L-BFGS, MBIS, meta-GGA TD-DFT gradient, ML-optimized integration grids, 
  MM, NACMEs, nearIR, NEB, NEB-TS, NL-DFT gradient (VV10), 2- and 3-layer-ONIOM, interface openCOSMO-RS, QMMM,   
  Crystal-QMMM, RESP, rigid body optimization, SF, symmetry and pop. for TD-DFT, various functionals, SOLVATOR                                   
                                                                         
[Other institutions]                                                     
  V. Asgeirsson          : NEB                                           
  Christoph Bannwarth    : sTDA-DFT, sTD-DFT, PBEh-3c, B97-3c, D3        
  Giovanni Bistoni       : ETS/NOCV, ADLD/ADEX, COVALED                  
  Martin Brehm           : Molecular dynamics                            
  Ronald Cardenas        : ETS/NOCV                                      
  Martina Colucci        : COVALED                                       
  Sebastian Ehlert       : rSCAN, r2SCAN, r2SCAN-3c, D4, dhf basis sets  
  Marvin Friede          : D4 for Fr, Ra, Ac-Lr                          
  Lars Goerigk           : TD-DFT with DH, B97 family of functionals     
  Stefan Grimme          : VdW corrections, initial TS optimization, DFT functionals, gCP, sTDA/sTD-DF 
  Waldemar Hujo          : DFT-NL                                        
  H. Jonsson             : NEB                                           
  Holger Kruse           : gCP                                           
  Marcel Mueller         : wB97X-3c, vDZP basis set                      
  Hagen Neugebauer       : wr2SCAN, Native XTB                           
  Gianluca Regni         : ADLD/ADEX                                     
  Tobias Risthaus        : pre 6.0 range-separated hybrid DFT and stability analysis
  Lukas Wittmann         : regularized MP2, r2SCAN double-hybrids, wr2SCAN        
                                                                         
We gratefully acknowledge several colleagues who have allowed us to      
interface, adapt or use parts of their codes:                            
  Ed Valeev, F. Pavosevic, A. Kumar             : LibInt (2-el integral package), F12 methods 
  Garnet Chan, S. Sharma, J. Yang, R. Olivares  : DMRG                   
  Ulf Ekstrom                                   : XCFun DFT Library      
  Mihaly Kallay                                 : mrcc  (arbitrary order and MRCC methods)
  Frank Weinhold                                : gennbo (NPA and NBO analysis)           
  Simon Mueller                                 : openCOSMO-RS                            
  Christopher J. Cramer and Donald G. Truhlar   : smd solvation model                     
  S Lehtola, MJT Oliveira, MAL Marques          : LibXC Library                           
  Liviu Ungur et al                             : ANISO software                          


 Your calculation uses the libint2 library for the computation of 2-el integrals
 For citations please refer to: http://libint.valeyev.net

 Your ORCA version has been built with support for libXC version: 7.0.0
 For citations please refer to: https://libxc.gitlab.io

 This ORCA versions uses:
   CBLAS   interface :  Fast vector & matrix operations
   LAPACKE interface :  Fast linear algebra routines
   SCALAPACK package :  Parallel linear algebra routines
   Shared memory     :  Shared parallel matrices
   BLAS/LAPACK       :  OpenBLAS 0.3.29  USE64BITINT DYNAMIC_ARCH NO_AFFINITY Haswell SINGLE_THREADED
        Core in use  :  Haswell
   Copyright (c) 2011-2014, The OpenBLAS Project


  ***********************************
  * Starting time: Wed Sep  3 08:33:44 2025
  * Host name:     chemlab03
  * Process ID:    120866
  * Working dir.:  /home/vivek/mm-project/vivek/xtb-goat/MP2-opt/l/5
  ***********************************



***************************************
The coordinates will be read from file: /home/vivek/mm-project/vivek/xtb-goat/xtb-goat/l/L_CONF/5.xyz
***************************************


================================================================================

----- Orbital basis set information -----
Your calculation utilizes the basis: 6-31G**
   H-He, Li-Ne : W. J. Hehre, R. Ditchfield and J.A. Pople, J. Chem. Phys. 56, 2257 (1972).
                 Note: He and Ne are unpublished basis sets taken from the Gaussian program.
                 Note: Li and B from J. D. Dill and J. A. Pople, J. Chem. Phys. 62, 2921 (1975).
   Na - Ar     : M. M. Francl, W. J. Pietro, W. J. Hehre, J. S. Binkley, M. S. Gordon, 
                 D. J. DeFrees and J. A. Pople, J. Chem. Phys. 77, 3654 (1982).
   K - Zn      : V. A. Rassolov, J. A. Pople, M. A. Ratner, and T. L. Windus, J. Chem. Phys. 109, 1223 (1998).

================================================================================
                                        WARNINGS
                       Please study these warnings very carefully!
================================================================================


WARNING: The frozen-core approximation for MP2-gradient calculations is turned on by default.

WARNING: Geometry Optimization
  ===> : Switching off AutoStart
         For restart on a previous wavefunction, please use MOREAD

WARNING: Post HF methods need fully converged wavefunctions
  ===> : Setting SCFConvForced true
         You can overwrite this default with %scf ConvForced false 


================================================================================
                                       INPUT FILE
================================================================================
NAME = 5.inp
|  1> ! MP2 6-31G** opt
|  2> 
|  3> * xyzfile 0 1 /home/vivek/mm-project/vivek/xtb-goat/xtb-goat/l/L_CONF/5.xyz
|  4> 
|  5>                          ****END OF INPUT****
================================================================================

                       *****************************
                       * Geometry Optimization Run *
                       *****************************

Geometry optimization settings:
Update method            Update   .... BFGS
Choice of coordinates    CoordSys .... (2022) Redundant Internals
Initial Hessian          InHess   .... Almloef's Model
Max. no of cycles        MaxIter  .... 66

Convergence Tolerances:
Energy Change            TolE     ....  5.0000e-06 Eh
Max. Gradient            TolMAXG  ....  3.0000e-04 Eh/bohr
RMS Gradient             TolRMSG  ....  1.0000e-04 Eh/bohr
Max. Displacement        TolMAXD  ....  4.0000e-03 bohr
RMS Displacement         TolRMSD  ....  2.0000e-03 bohr
Strict Convergence                .... False

------------------------------------------------------------------------------
                        ORCA OPTIMIZATION COORDINATE SETUP
------------------------------------------------------------------------------

The optimization will be done in redundant internal coordinates (2022)
Making redundant internal coordinates   ...  (2022 redundants) done
Evaluating the initial hessian          ...  (Almloef) done
Evaluating the coordinates              ...  done
Calculating the B-matrix                .... done
Calculating the G-matrix                .... done
The number of degrees of freedom        ....   94

    -----------------------------------------------------------------
                    Redundant Internal Coordinates


    -----------------------------------------------------------------
         Definition                    Initial Value    Approx d2E/dq
    -----------------------------------------------------------------
      1. B(C   1,C   0)                  1.5220         0.384745   
      2. B(C   4,C   0)                  1.5314         0.371600   
      3. B(H   5,C   0)                  1.0942         0.354589   
      4. B(N   7,H   3)                  1.0155         0.424050   
      5. B(N   7,C   0)                  1.4597         0.433220   
      6. B(N   7,H   2)                  1.0147         0.425301   
      7. B(C   8,C   4)                  1.5307         0.372605   
      8. B(H   9,C   4)                  1.0913         0.358423   
      9. B(H  10,C   4)                  1.0925         0.356796   
     10. B(C  11,C   8)                  1.5279         0.376509   
     11. B(H  12,C  11)                  1.0877         0.363151   
     12. B(C  13,C   8)                  1.5266         0.378308   
     13. B(C  13,H   6)                  1.0879         0.362834   
     14. B(H  14,C  11)                  1.0874         0.363493   
     15. B(H  15,C  11)                  1.0874         0.363553   
     16. B(H  16,C   8)                  1.0960         0.352196   
     17. B(H  17,C  13)                  1.0880         0.362781   
     18. B(H  18,C  13)                  1.0870         0.364120   
     19. B(O  19,C   1)                  1.3413         0.669104   
     20. B(H  20,O  19)                  0.9711         0.499143   
     21. B(O  21,C   1)                  1.2032         1.111281   
     22. A(C   4,C   0,N   7)          108.9302         0.370034   
     23. A(C   1,C   0,H   5)          109.1348         0.325068   
     24. A(H   5,C   0,N   7)          107.9235         0.329499   
     25. A(C   4,C   0,H   5)          111.0194         0.323218   
     26. A(C   1,C   0,N   7)          108.3153         0.372254   
     27. A(C   1,C   0,C   4)          111.4149         0.364856   
     28. A(C   0,C   1,O  21)          124.9250         0.439569   
     29. A(C   0,C   1,O  19)          112.4603         0.401539   
     30. A(O  19,C   1,O  21)          122.3908         0.483075   
     31. A(H   9,C   4,H  10)          108.2285         0.290206   
     32. A(C   0,C   4,H  10)          108.4229         0.323547   
     33. A(C   8,C   4,H   9)          109.2545         0.323932   
     34. A(C   0,C   4,H   9)          106.9026         0.323789   
     35. A(C   0,C   4,C   8)          114.1827         0.362861   
     36. A(C   8,C   4,H  10)          109.6664         0.323690   
     37. A(C   0,N   7,H   2)          110.8214         0.336683   
     38. A(H   2,N   7,H   3)          108.0783         0.301447   
     39. A(C   0,N   7,H   3)          109.5294         0.336518   
     40. A(C  13,C   8,H  16)          108.6100         0.323808   
     41. A(C   4,C   8,H  16)          108.4360         0.323002   
     42. A(C  11,C   8,H  16)          108.4655         0.323555   
     43. A(C  11,C   8,C  13)          110.0882         0.364622   
     44. A(C   4,C   8,C  13)          111.7695         0.363973   
     45. A(C   4,C   8,C  11)          109.3954         0.363676   
     46. A(H  14,C  11,H  15)          108.3811         0.291706   
     47. A(H  12,C  11,H  15)          108.4372         0.291662   
     48. A(C   8,C  11,H  15)          110.7271         0.325246   
     49. A(H  12,C  11,H  14)          108.3728         0.291655   
     50. A(C   8,C  11,H  14)          110.5598         0.325237   
     51. A(C   8,C  11,H  12)          110.2882         0.325187   
     52. A(H   6,C  13,H  18)          107.9722         0.291694   
     53. A(C   8,C  13,H  17)          110.3964         0.325387   
     54. A(H   6,C  13,H  17)          108.4138         0.291525   
     55. A(H   6,C  13,C   8)          110.3131         0.325395   
     56. A(H  17,C  13,H  18)          108.6113         0.291687   
     57. A(C   8,C  13,H  18)          111.0511         0.325584   
     58. A(C   1,O  19,H  20)          110.6255         0.372375   
     59. D(O  19,C   1,C   0,H   5)    -12.6066         0.011030   
     60. D(O  21,C   1,C   0,H   5)    172.7388         0.011030   
     61. D(O  21,C   1,C   0,C   4)     49.7899         0.011030   
     62. D(O  19,C   1,C   0,N   7)    104.6499         0.011030   
     63. D(O  19,C   1,C   0,C   4)   -135.5555         0.011030   
     64. D(C   8,C   4,C   0,C   1)     83.7281         0.011033   
     65. D(C   8,C   4,C   0,H   5)    -38.1356         0.011033   
     66. D(H   9,C   4,C   0,H   5)     82.8127         0.011033   
     67. D(H   9,C   4,C   0,N   7)    -35.8936         0.011033   
     68. D(C   8,C   4,C   0,N   7)   -156.8419         0.011033   
     69. D(H   9,C   4,C   0,C   1)   -155.3236         0.011033   
     70. D(H   2,N   7,C   0,H   5)     59.1603         0.016001   
     71. D(H   2,N   7,C   0,C   4)    179.7884         0.016001   
     72. D(H   3,N   7,C   0,C   1)     60.2823         0.016001   
     73. D(H   2,N   7,C   0,C   1)    -58.8713         0.016001   
     74. D(H   3,N   7,C   0,C   4)    -61.0580         0.016001   
     75. D(C  13,C   8,C   4,H  10)     59.7606         0.011089   
     76. D(C  13,C   8,C   4,H   9)    178.2310         0.011089   
     77. D(C  13,C   8,C   4,C   0)    -62.1352         0.011089   
     78. D(C  11,C   8,C   4,H  10)    -62.4268         0.011089   
     79. D(C  11,C   8,C   4,H   9)     56.0435         0.011089   
     80. D(C  11,C   8,C   4,C   0)    175.6774         0.011089   
     81. D(H  14,C  11,C   8,H  16)    -59.7289         0.011309   
     82. D(H  14,C  11,C   8,C  13)     58.9801         0.011309   
     83. D(H  14,C  11,C   8,C   4)   -177.8303         0.011309   
     84. D(H  12,C  11,C   8,H  16)   -179.5679         0.011309   
     85. D(H  12,C  11,C   8,C  13)    -60.8588         0.011309   
     86. D(H  12,C  11,C   8,C   4)     62.3307         0.011309   
     87. D(H   6,C  13,C   8,H  16)     65.9954         0.011412   
     88. D(H   6,C  13,C   8,C  11)    -52.6250         0.011412   
     89. D(H   6,C  13,C   8,C   4)   -174.4144         0.011412   
     90. D(H  17,C  13,C   8,H  16)   -174.2033         0.011412   
     91. D(H  17,C  13,C   8,C  11)     67.1763         0.011412   
     92. D(H  17,C  13,C   8,C   4)    -54.6131         0.011412   
     93. D(H  20,O  19,C   1,O  21)     -1.2430         0.033250   
     94. D(H  20,O  19,C   1,C   0)   -176.0531         0.033250   
    -----------------------------------------------------------------

Number of atoms                         .... 22
Number of degrees of freedom            .... 94


         *************************************************************
         *                GEOMETRY OPTIMIZATION CYCLE   1            *
         *************************************************************
---------------------------------
CARTESIAN COORDINATES (ANGSTROEM)
---------------------------------
  C     -9.604096    6.500418   -2.235647
  C     -8.831787    6.799469   -0.958725
  H     -9.349704    8.403227   -2.962170
  H     -8.183743    7.343607   -3.429203
  C     -9.333625    5.077253   -2.732401
  H    -10.671765    6.656413   -2.053934
  H    -10.490782    3.097667   -0.124434
  N     -9.179719    7.448575   -3.261104
  C    -10.196588    4.004805   -2.062912
  H     -9.525226    5.074406   -3.806716
  H     -8.276730    4.850999   -2.573158
  C     -9.916063    2.650097   -2.711342
  H     -8.876720    2.367425   -2.559811
  C     -9.941158    3.929553   -0.559744
  H    -10.547831    1.879853   -2.275299
  H    -10.109822    2.687769   -3.780680
  H    -11.250785    4.256291   -2.226404
  H     -8.881462    3.782284   -0.362109
  H    -10.263321    4.841049   -0.062846
  O     -9.583271    7.423750   -0.039615
  H     -9.049733    7.656645    0.737670
  O     -7.655259    6.601256   -0.802827

----------------------------
CARTESIAN COORDINATES (A.U.)
----------------------------
  NO LB      ZA    FRAG     MASS         X           Y           Z
   0 C     6.0000    0    12.011  -18.149112   12.284009   -4.224761
   1 C     6.0000    0    12.011  -16.689658   12.849133   -1.811728
   2 H     1.0000    0     1.008  -17.668381   15.879798   -5.597690
   3 H     1.0000    0     1.008  -15.465033   13.877407   -6.480254
   4 C     6.0000    0    12.011  -17.637995    9.594618   -5.163490
   5 H     1.0000    0     1.008  -20.166713   12.578797   -3.881373
   6 H     1.0000    0     1.008  -19.824706    5.853742   -0.235146
   7 N     7.0000    0    14.007  -17.347155   14.075768   -6.162593
   8 C     6.0000    0    12.011  -19.268759    7.567984   -3.898339
   9 H     1.0000    0     1.008  -18.000069    9.589237   -7.193651
  10 H     1.0000    0     1.008  -15.640753    9.167060   -4.862563
  11 C     6.0000    0    12.011  -18.738643    5.007958   -5.123694
  12 H     1.0000    0     1.008  -16.774570    4.473785   -4.837341
  13 C     6.0000    0    12.011  -18.786065    7.425778   -1.057762
  14 H     1.0000    0     1.008  -19.932513    3.552408   -4.299693
  15 H     1.0000    0     1.008  -19.104795    5.079147   -7.144449
  16 H     1.0000    0     1.008  -21.260902    8.043225   -4.207295
  17 H     1.0000    0     1.008  -16.783531    7.147480   -0.684287
  18 H     1.0000    0     1.008  -19.394866    9.148256   -0.118761
  19 O     8.0000    0    15.999  -18.109758   14.028854   -0.074862
  20 H     1.0000    0     1.008  -17.101516   14.468961    1.393994
  21 O     8.0000    0    15.999  -14.466344   12.474565   -1.517123

--------------------------------
INTERNAL COORDINATES (ANGSTROEM)
--------------------------------
 C      0   0   0     0.000000000000     0.00000000     0.00000000
 C      1   0   0     1.521980102804     0.00000000     0.00000000
 H      1   2   0     2.052616373318    92.97624337     0.00000000
 H      3   1   2     1.643283120238    65.84375675    91.65712552
 C      1   2   3     1.531442695450   111.41486808   143.12678706
 H      1   2   3     1.094198451967   109.13475430   266.07571038
 H      5   1   2     3.472645692727   103.13776033    61.54425161
 N      3   1   2     1.014699934309    41.65844321   125.53682796
 C      5   1   2     1.530707536452   114.18271125    83.72811292
 H      5   1   2     1.091270338476   106.90259603   204.67640461
 H      5   1   2     1.092509239864   108.42286778   321.15160294
 C      9   5   1     1.527870307343   109.39536987   175.67736098
 H     12   9   5     1.087703192399   110.28823453    62.33069294
 C      7   5   1     1.087941129125    25.21431715   313.56924569
 H     12   9   5     1.087446839883   110.55978700   182.16965791
 H     12   9   5     1.087402465307   110.72712070   302.30373544
 H      9   5   1     1.096041323421   108.43598572    57.55744257
 H     14   7   5     1.087980789124   108.41382656   244.37467578
 H     14   7   5     1.086978123241   107.97215080   126.88314199
 O      2   1   3     1.341349824838   112.46033858    81.31767950
 H     20   2   1     0.971120539521   110.62552172   183.94685299
 O      2   1   3     1.203249455521   124.92498630   266.66311623

---------------------------
INTERNAL COORDINATES (A.U.)
---------------------------
 C      0   0   0     0.000000000000     0.00000000     0.00000000
 C      1   0   0     2.876125575577     0.00000000     0.00000000
 H      1   2   0     3.878882803573    92.97624337     0.00000000
 H      3   1   2     3.105355057745    65.84375675    91.65712552
 C      1   2   3     2.894007284194   111.41486808   143.12678706
 H      1   2   3     2.067735410378   109.13475430   266.07571038
 H      5   1   2     6.562349319394   103.13776033    61.54425161
 N      3   1   2     1.917504983952    41.65844321   125.53682796
 C      5   1   2     2.892618035023   114.18271125    83.72811292
 H      5   1   2     2.062202077791   106.90259603   204.67640461
 H      5   1   2     2.064543262120   108.42286778   321.15160294
 C      9   5   1     2.887256449028   109.39536987   175.67736098
 H     12   9   5     2.055461148625   110.28823453    62.33069294
 C      7   5   1     2.055910783876    25.21431715   313.56924569
 H     12   9   5     2.054976712577   110.55978700   182.16965791
 H     12   9   5     2.054892856781   110.72712070   302.30373544
 H      9   5   1     2.071217932725   108.43598572    57.55744257
 H     14   7   5     2.055985730413   108.41382656   244.37467578
 H     14   7   5     2.054090966489   107.97215080   126.88314199
 O      2   1   3     2.534783818726   112.46033858    81.31767950
 H     20   2   1     1.835151862721   110.62552172   183.94685299
 O      2   1   3     2.273811941724   124.92498630   266.66311623

---------------------
BASIS SET INFORMATION
---------------------
There are 4 groups of distinct atoms

 Group   1 Type C   : 10s4p1d contracted to 3s2p1d pattern {631/31/1}
 Group   2 Type H   : 4s1p contracted to 2s1p pattern {31/1}
 Group   3 Type N   : 10s4p1d contracted to 3s2p1d pattern {631/31/1}
 Group   4 Type O   : 10s4p1d contracted to 3s2p1d pattern {631/31/1}

Atom   0C    basis set group =>   1
Atom   1C    basis set group =>   1
Atom   2H    basis set group =>   2
Atom   3H    basis set group =>   2
Atom   4C    basis set group =>   1
Atom   5H    basis set group =>   2
Atom   6H    basis set group =>   2
Atom   7N    basis set group =>   3
Atom   8C    basis set group =>   1
Atom   9H    basis set group =>   2
Atom  10H    basis set group =>   2
Atom  11C    basis set group =>   1
Atom  12H    basis set group =>   2
Atom  13C    basis set group =>   1
Atom  14H    basis set group =>   2
Atom  15H    basis set group =>   2
Atom  16H    basis set group =>   2
Atom  17H    basis set group =>   2
Atom  18H    basis set group =>   2
Atom  19O    basis set group =>   4
Atom  20H    basis set group =>   2
Atom  21O    basis set group =>   4
------------------------------------------------------------------------------
                             ORCA STARTUP CALCULATIONS
------------------------------------------------------------------------------
------------------------------------------------------------------------------
                   ___                                                        
                  /   \      - P O W E R E D   B Y -                         
                 /     \                                                     
                 |  |  |   _    _      __       _____    __    __             
                 |  |  |  | |  | |    /  \     |  _  \  |  |  /  |          
                  \  \/   | |  | |   /    \    | | | |  |  | /  /          
                 / \  \   | |__| |  /  /\  \   | |_| |  |  |/  /          
                |  |  |   |  __  | /  /__\  \  |    /   |      \           
                |  |  |   | |  | | |   __   |  |    \   |  |\   \          
                \     /   | |  | | |  |  |  |  | |\  \  |  | \   \       
                 \___/    |_|  |_| |__|  |__|  |_| \__\ |__|  \__/        
                                                                              
                      - O R C A' S   B I G   F R I E N D -                    
                                      &                                       
                       - I N T E G R A L  F E E D E R -                       
                                                                              
 v1 FN, 2020, v2 2021, v3 2022-2024                                           
------------------------------------------------------------------------------


----------------------
SHARK INTEGRAL PACKAGE
----------------------

Number of atoms                             ...     22
Number of basis functions                   ...    191
Number of shells                            ...     93
Maximum angular momentum                    ...      2
Integral batch strategy                     ... SHARK/LIBINT Hybrid
RI-J (if used) integral strategy            ... SPLIT-RIJ (Revised 2003 algorithm where possible)
Printlevel                                  ...      1
Contraction scheme used                     ... SEGMENTED contraction
Prescreening option                         ... SCHWARTZ
   Thresh                                   ... 2.500e-11
   Tcut                                     ... 2.500e-12
   Tpresel                                  ... 2.500e-12 
Coulomb Range Separation                    ... NOT USED
Exchange Range Separation                   ... NOT USED
Multipole approximations                    ... NOT USED
Finite Nucleus Model                        ... NOT USED
CABS basis                                  ... NOT available
Auxiliary Coulomb fitting basis             ... NOT available
Auxiliary J/K fitting basis                 ... NOT available
Auxiliary Correlation fitting basis         ... NOT available
Auxiliary 'external' fitting basis          ... NOT available

Checking pre-screening integrals            ... done (  0.0 sec) Dimension = 93
   => SHARK Basis and OBASIS are compatible. Storing Pre-screening
Shell pair information
Shell pair cut-off parameter TPreSel        ...   2.5e-12
Total number of shell pairs                 ...      4371
Shell pairs after pre-screening             ...      3942
Total number of primitive shell pairs       ...     20328
Primitive shell pairs kept                  ...     12276
          la=0 lb=0:   1299 shell pairs
          la=1 lb=0:   1473 shell pairs
          la=1 lb=1:    442 shell pairs
          la=2 lb=0:    437 shell pairs
          la=2 lb=1:    249 shell pairs
          la=2 lb=2:     42 shell pairs

Checking whether 4 symmetric matrices of dimension 191 fit in memory
:Max Core in MB      =   4096.00
 MB in use           =      6.47
 MB left             =   4089.53
 MB needed           =      0.56
 Data fit in memory  = YES
Calculating Nuclear repulsion               ... done (  0.0 sec) ENN=    490.693122313460 Eh

Diagonalization of the overlap matrix:
Smallest eigenvalue                        ... 3.018e-03
Time for diagonalization                   ...    0.002 sec
Threshold for overlap eigenvalues          ... 1.000e-07
Number of eigenvalues below threshold      ... 0
Time for construction of square roots      ...    0.001 sec
Total time needed                          ...    0.003 sec

-------------------
DFT GRID GENERATION
-------------------

General Integration Accuracy     IntAcc      ... 4.388
Radial Grid Type                 RadialGrid  ... OptM3 with GC (2021)
Angular Grid (max. ang.)         AngularGrid ... 4 (Lebedev-302)
Angular grid pruning method      GridPruning ... 4 (adaptive)
Weight generation scheme         WeightScheme... mBecke (2022)
Basis function cutoff            BFCut       ... 1.0000e-11
Integration weight cutoff        WCut        ... 1.0000e-14
Partially contracted basis set               ... off
Rotationally invariant grid construction     ... off
Angular grids for H and He will be reduced by one unit

Total number of grid points                  ...    95553
Total number of batches                      ...     1505
Average number of points per batch           ...       63
Average number of grid points per atom       ...     4343
Grids setup in   0.4 sec
Initializing property integral containers    ... done (  0.0 sec)

SHARK setup successfully completed in   0.4 seconds

Maximum memory used throughout the entire STARTUP-calculation: 38.4 MB
-------------------------------------------------------------------------------
                                 ORCA GUESS
                   Start orbitals & Density for SCF / CASSCF
-------------------------------------------------------------------------------

------------
SCF SETTINGS
------------
Hamiltonian:
 Ab initio Hamiltonian  Method          .... Hartree-Fock(GTOs)


General Settings:
 Integral files         IntName         .... 5
 Hartree-Fock type      HFTyp           .... RHF
 Total Charge           Charge          ....    0
 Multiplicity           Mult            ....    1
 Number of Electrons    NEL             ....   72
 Basis Dimension        Dim             ....  191
 Nuclear Repulsion      ENuc            ....    490.6931223135 Eh

Convergence Acceleration:
 AO-DIIS                CNVDIIS         .... on
   Start iteration      DIISMaxIt       ....    12
   Startup error        DIISStart       ....  0.200000
   # of expansion vecs  DIISMaxEq       ....     5
   Bias factor          DIISBfac        ....   1.050
   Max. coefficient     DIISMaxC        ....  10.000
 MO-DIIS                CNVKDIIS        .... off
 Trust-Rad. Augm. Hess. CNVTRAH         .... auto
   Auto Start mean grad. ratio tolernc. ....  1.125000
   Auto Start start iteration           ....    50
   Auto Start num. interpolation iter.  ....    10
   Max. Number of Micro iterations      ....    24
   Max. Number of Macro iterations      .... Maxiter - #DIIS iter
   Number of Davidson start vectors     ....     2
   Converg. threshold    (grad. norm)   ....   1.000e-05
   Grad. Scal. Fac. for Micro threshold ....   0.100
   Minimum threshold for Micro iter.    ....   1.000e-02
   NR start threshold (gradient norm)   ....   1.000e-04
   Initial trust radius                 ....   0.400
   Minimum AH scaling param. (alpha)    ....   1.000
   Maximum AH scaling param. (alpha)    .... 1000.000
   Quad. conv. algorithm                .... NR
   White noise on init. David. guess    .... on
   Maximum white noise                  ....   0.010
   Pseudo random numbers                .... off
   Inactive MOs                         .... canonical
   Orbital update algorithm             .... Taylor
   Preconditioner                       .... Diag
   Full preconditioner red. dimension   ....   250
 SOSCF                 CNVSOSCF           .... on
   Start iteration     SOSCFMaxIt         ....   150
   Startup grad/error  SOSCFStart         ....  0.003300
   Hessian update      SOSCFHessUp        .... L-BFGS
   Autom. constraints  SOSCFAutoConstrain .... off
 Level Shifting         CNVShift        .... on
   Level shift para.    LevelShift      ....    0.2500
   Turn off err/grad.   ShiftErr        ....    0.0010
 Zerner damping         CNVZerner       .... off
 Static damping         CNVDamp         .... on
   Fraction old density DampFac         ....    0.7000
   Max. Damping (<1)    DampMax         ....    0.9800
   Min. Damping (>=0)   DampMin         ....    0.0000
   Turn off err/grad.   DampErr         ....    0.1000

SCF Procedure:
 Maximum # iterations   MaxIter         ....   125
 SCF integral mode      SCFMode         .... Direct
   Integral package                     .... SHARK and LIBINT hybrid scheme
 Reset frequency        DirectResetFreq ....    20
 Integral Threshold     Thresh          ....  2.500e-11 Eh
 Primitive CutOff       TCut            ....  2.500e-12 Eh

Convergence Tolerance:
 Convergence Check Mode ConvCheckMode   .... Total+1el-Energy
 Convergence forced     ConvForced      .... 1
 Energy Change          TolE            ....  1.000e-08 Eh
 1-El. energy change                    ....  1.000e-05 Eh
 Orbital Gradient       TolG            ....  1.000e-05
 Orbital Rotation angle TolX            ....  1.000e-05
 DIIS Error             TolErr          ....  5.000e-07

------------------------------
INITIAL GUESS: MODEL POTENTIAL
------------------------------
Loading Hartree-Fock densities                     ... done
Calculating cut-offs                               ... done
Initializing the effective Hamiltonian             ... done
Setting up the integral package (SHARK)            ... done
Starting the Coulomb interaction                   ... done (   0.1 sec)
Making the grid                                    ... done (   0.1 sec)
Mapping shells                                     ... done
Starting the XC term evaluation                    ... done (   0.0 sec)
Transforming the Hamiltonian                       ... done (   0.0 sec)
Diagonalizing the Hamiltonian                      ... done (   0.0 sec)
Back transforming the eigenvectors                 ... done (   0.0 sec)
Now organizing SCF variables                       ... done
                      ------------------
                      INITIAL GUESS DONE (   0.2 sec)
                      ------------------
             **** ENERGY FILE WAS UPDATED (5.en.tmp) ****
Finished Guess after   0.3 sec
Maximum memory used throughout the entire GUESS-calculation: 11.7 MB

-------------------------------------------------------------------------------------------
                                      ORCA LEAN-SCF
                              memory conserving SCF solver
-------------------------------------------------------------------------------------------

----------------------------------------D-I-I-S--------------------------------------------
Iteration    Energy (Eh)           Delta-E    RMSDP     MaxDP     DIISErr   Damp  Time(sec)
-------------------------------------------------------------------------------------------
               ***  Starting incremental Fock matrix formation  ***
    1    -438.5386633942326284     0.00e+00  2.49e-03  6.10e-02  2.50e-01  0.700   2.0
    2    -438.7016260232286982    -1.63e-01  1.89e-03  4.39e-02  1.52e-01  0.700   1.9
                               ***Turning on AO-DIIS***
    3    -438.7974764409164550    -9.59e-02  1.02e-03  2.27e-02  8.58e-02  0.700   1.9
    4    -438.8576491590670798    -6.02e-02  2.31e-03  4.78e-02  6.04e-02  0.000   1.9
    5    -438.9903860081327025    -1.33e-01  2.68e-04  5.70e-03  5.34e-03  0.000   1.9
                              *** Initializing SOSCF ***
---------------------------------------S-O-S-C-F--------------------------------------
Iteration    Energy (Eh)           Delta-E    RMSDP     MaxDP     MaxGrad    Time(sec)
--------------------------------------------------------------------------------------
    6    -438.9908698958349191    -4.84e-04  1.30e-04  3.03e-03  3.28e-03     1.8
               *** Restarting incremental Fock matrix formation ***
    7    -438.9909753739952407    -1.05e-04  7.67e-05  2.53e-03  1.46e-03     2.0
    8    -438.9910051028049907    -2.97e-05  7.18e-05  1.74e-03  5.01e-04     1.7
    9    -438.9910156954439913    -1.06e-05  1.20e-05  2.53e-04  1.72e-04     1.7
   10    -438.9910163411740882    -6.46e-07  8.04e-06  1.64e-04  7.11e-05     1.5
   11    -438.9910164760268003    -1.35e-07  1.59e-06  4.32e-05  1.81e-05     1.4
   12    -438.9910164867002891    -1.07e-08  4.44e-07  1.71e-05  4.42e-06     1.3
   13    -438.9910164885837389    -1.88e-09  1.61e-07  5.18e-06  1.64e-06     1.1
                 **** Energy Check signals convergence ****

               *****************************************************
               *                     SUCCESS                       *
               *           SCF CONVERGED AFTER  13 CYCLES          *
               *****************************************************

             **** ENERGY FILE WAS UPDATED (5.en.tmp) ****

----------------
TOTAL SCF ENERGY
----------------

Total Energy       :       -438.99101648938534 Eh          -11945.55286 eV

Components:
Nuclear Repulsion  :        490.69312231345970 Eh           13352.43868 eV
Electronic Energy  :       -929.68413880284504 Eh          -25297.99154 eV
One Electron Energy:      -1571.90948193495001 Eh          -42773.83158 eV
Two Electron Energy:        642.22534313210497 Eh           17475.84004 eV

Virial components:
Potential Energy   :       -877.61949329390370 Eh          -23881.24051 eV
Kinetic Energy     :        438.62847680451836 Eh           11935.68765 eV
Virial Ratio       :          2.00082653020503

---------------
SCF CONVERGENCE
---------------

  Last Energy change         ...    1.8834e-09  Tolerance :   1.0000e-08
  Last MAX-Density change    ...    5.1846e-06  Tolerance :   1.0000e-07
  Last RMS-Density change    ...    1.6113e-07  Tolerance :   5.0000e-09
  Last DIIS Error            ...    3.2828e-03  Tolerance :   5.0000e-07
  Last Orbital Gradient      ...    1.6407e-06  Tolerance :   1.0000e-05
  Last Orbital Rotation      ...    2.5696e-06  Tolerance :   1.0000e-05


----------------
ORBITAL ENERGIES
----------------

  NO   OCC          E(Eh)            E(eV) 
   0   2.0000     -20.619436      -561.0834 
   1   2.0000     -20.552763      -559.2691 
   2   2.0000     -15.555028      -423.2738 
   3   2.0000     -11.382786      -309.7414 
   4   2.0000     -11.271107      -306.7024 
   5   2.0000     -11.226289      -305.4828 
   6   2.0000     -11.219166      -305.2890 
   7   2.0000     -11.210106      -305.0425 
   8   2.0000     -11.209691      -305.0312 
   9   2.0000      -1.468327       -39.9552 
  10   2.0000      -1.361775       -37.0558 
  11   2.0000      -1.201284       -32.6886 
  12   2.0000      -1.092833       -29.7375 
  13   2.0000      -0.989897       -26.9365 
  14   2.0000      -0.933410       -25.3994 
  15   2.0000      -0.907306       -24.6891 
  16   2.0000      -0.804484       -21.8911 
  17   2.0000      -0.768662       -20.9163 
  18   2.0000      -0.711122       -19.3506 
  19   2.0000      -0.696506       -18.9529 
  20   2.0000      -0.665594       -18.1117 
  21   2.0000      -0.646058       -17.5801 
  22   2.0000      -0.623869       -16.9763 
  23   2.0000      -0.599294       -16.3076 
  24   2.0000      -0.589607       -16.0440 
  25   2.0000      -0.578368       -15.7382 
  26   2.0000      -0.559447       -15.2233 
  27   2.0000      -0.538594       -14.6559 
  28   2.0000      -0.516925       -14.0662 
  29   2.0000      -0.506473       -13.7818 
  30   2.0000      -0.485403       -13.2085 
  31   2.0000      -0.467345       -12.7171 
  32   2.0000      -0.463753       -12.6194 
  33   2.0000      -0.456540       -12.4231 
  34   2.0000      -0.455490       -12.3945 
  35   2.0000      -0.394661       -10.7393 
  36   0.0000       0.181162         4.9297 
  37   0.0000       0.215937         5.8760 
  38   0.0000       0.234311         6.3759 
  39   0.0000       0.246456         6.7064 
  40   0.0000       0.257953         7.0193 
  41   0.0000       0.293226         7.9791 
  42   0.0000       0.297937         8.1073 
  43   0.0000       0.305381         8.3099 
  44   0.0000       0.313675         8.5355 
  45   0.0000       0.323209         8.7950 
  46   0.0000       0.335855         9.1391 
*Only the first 10 virtual orbitals were printed.

                    ********************************
                    * MULLIKEN POPULATION ANALYSIS *
                    ********************************

-----------------------
MULLIKEN ATOMIC CHARGES
-----------------------
   0 C :   -0.016903
   1 C :    0.797858
   2 H :    0.273482
   3 H :    0.281338
   4 C :   -0.219360
   5 H :    0.157425
   6 H :    0.115291
   7 N :   -0.689528
   8 C :   -0.134512
   9 H :    0.141568
  10 H :    0.140237
  11 C :   -0.318899
  12 H :    0.111774
  13 C :   -0.348561
  14 H :    0.111652
  15 H :    0.112553
  16 H :    0.112983
  17 H :    0.125612
  18 H :    0.114678
  19 O :   -0.643581
  20 H :    0.369673
  21 O :   -0.594781
Sum of atomic charges:    0.0000000

--------------------------------
MULLIKEN REDUCED ORBITAL CHARGES
--------------------------------
  0 C s       :     3.207214  s :     3.207214
      pz      :     0.806781  p :     2.739724
      px      :     1.025119
      py      :     0.907824
      dz2     :     0.017218  d :     0.069966
      dxz     :     0.013095
      dyz     :     0.015364
      dx2y2   :     0.015866
      dxy     :     0.008423

  1 C s       :     2.963265  s :     2.963265
      pz      :     0.747655  p :     2.092978
      px      :     0.719052
      py      :     0.626271
      dz2     :     0.020651  d :     0.145898
      dxz     :     0.054873
      dyz     :     0.013019
      dx2y2   :     0.024361
      dxy     :     0.032995

  2 H s       :     0.700423  s :     0.700423
      pz      :     0.006395  p :     0.026094
      px      :     0.005360
      py      :     0.014340

  3 H s       :     0.692620  s :     0.692620
      pz      :     0.006734  p :     0.026042
      px      :     0.015505
      py      :     0.003803

  4 C s       :     3.232717  s :     3.232717
      pz      :     1.040845  p :     2.938906
      px      :     1.035561
      py      :     0.862500
      dz2     :     0.014434  d :     0.047737
      dxz     :     0.003864
      dyz     :     0.007466
      dx2y2   :     0.014249
      dxy     :     0.007725

  5 H s       :     0.830586  s :     0.830586
      pz      :     0.001481  p :     0.011988
      px      :     0.009134
      py      :     0.001373

  6 H s       :     0.872071  s :     0.872071
      pz      :     0.002968  p :     0.012638
      px      :     0.003624
      py      :     0.006046

  7 N s       :     3.613672  s :     3.613672
      pz      :     1.557440  p :     4.041002
      px      :     1.334973
      py      :     1.148589
      dz2     :     0.006667  d :     0.034854
      dxz     :     0.001694
      dyz     :     0.010676
      dx2y2   :     0.014790
      dxy     :     0.001026

  8 C s       :     3.232611  s :     3.232611
      pz      :     0.914162  p :     2.845891
      px      :     1.006874
      py      :     0.924855
      dz2     :     0.015623  d :     0.056010
      dxz     :     0.006301
      dyz     :     0.011204
      dx2y2   :     0.013281
      dxy     :     0.009601

  9 H s       :     0.845918  s :     0.845918
      pz      :     0.009034  p :     0.012514
      px      :     0.001917
      py      :     0.001563

 10 H s       :     0.847136  s :     0.847136
      pz      :     0.001861  p :     0.012627
      px      :     0.008821
      py      :     0.001944

 11 C s       :     3.248352  s :     3.248352
      pz      :     1.029760  p :     3.028284
      px      :     1.044621
      py      :     0.953903
      dz2     :     0.013250  d :     0.042263
      dxz     :     0.003178
      dyz     :     0.007043
      dx2y2   :     0.009762
      dxy     :     0.009030

 12 H s       :     0.875608  s :     0.875608
      pz      :     0.001952  p :     0.012619
      px      :     0.008374
      py      :     0.002293

 13 C s       :     3.254966  s :     3.254966
      pz      :     0.934536  p :     3.051449
      px      :     1.055441
      py      :     1.061472
      dz2     :     0.011270  d :     0.042146
      dxz     :     0.005236
      dyz     :     0.009406
      dx2y2   :     0.009863
      dxy     :     0.006371

 14 H s       :     0.875697  s :     0.875697
      pz      :     0.002946  p :     0.012651
      px      :     0.004248
      py      :     0.005457

 15 H s       :     0.874791  s :     0.874791
      pz      :     0.008781  p :     0.012655
      px      :     0.002086
      py      :     0.001789

 16 H s       :     0.874851  s :     0.874851
      pz      :     0.001782  p :     0.012166
      px      :     0.008426
      py      :     0.001958

 17 H s       :     0.861812  s :     0.861812
      pz      :     0.001992  p :     0.012575
      px      :     0.008705
      py      :     0.001878

 18 H s       :     0.872462  s :     0.872462
      pz      :     0.003488  p :     0.012860
      px      :     0.002595
      py      :     0.006776

 19 O s       :     3.842355  s :     3.842355
      pz      :     1.372930  p :     4.775846
      px      :     1.669056
      py      :     1.733861
      dz2     :     0.001882  d :     0.025380
      dxz     :     0.012126
      dyz     :     0.002157
      dx2y2   :     0.003801
      dxy     :     0.005414

 20 H s       :     0.588995  s :     0.588995
      pz      :     0.019814  p :     0.041333
      px      :     0.012227
      py      :     0.009292

 21 O s       :     3.877570  s :     3.877570
      pz      :     1.768022  p :     4.684611
      px      :     1.368123
      py      :     1.548466
      dz2     :     0.003562  d :     0.032600
      dxz     :     0.007606
      dyz     :     0.000596
      dx2y2   :     0.009373
      dxy     :     0.011463



                     *******************************
                     * LOEWDIN POPULATION ANALYSIS *
                     *******************************

----------------------
LOEWDIN ATOMIC CHARGES
----------------------
   0 C :   -0.015914
   1 C :    0.229804
   2 H :    0.128687
   3 H :    0.134445
   4 C :   -0.107929
   5 H :    0.075871
   6 H :    0.064932
   7 N :   -0.273521
   8 C :   -0.065749
   9 H :    0.073937
  10 H :    0.072394
  11 C :   -0.177031
  12 H :    0.063202
  13 C :   -0.187363
  14 H :    0.062793
  15 H :    0.062985
  16 H :    0.056975
  17 H :    0.068236
  18 H :    0.062646
  19 O :   -0.213011
  20 H :    0.199598
  21 O :   -0.315987

-------------------------------
LOEWDIN REDUCED ORBITAL CHARGES
-------------------------------
  0 C s       :     2.871109  s :     2.871109
      pz      :     0.957918  p :     3.005986
      px      :     1.044286
      py      :     1.003782
      dz2     :     0.035285  d :     0.138819
      dxz     :     0.026493
      dyz     :     0.031165
      dx2y2   :     0.030205
      dxy     :     0.015671

  1 C s       :     2.851989  s :     2.851989
      pz      :     0.899225  p :     2.602854
      px      :     0.998217
      py      :     0.705411
      dz2     :     0.043872  d :     0.315352
      dxz     :     0.120918
      dyz     :     0.026891
      dx2y2   :     0.053740
      dxy     :     0.069931

  2 H s       :     0.789728  s :     0.789728
      pz      :     0.022254  p :     0.081585
      px      :     0.016169
      py      :     0.043162

  3 H s       :     0.783530  s :     0.783530
      pz      :     0.022306  p :     0.082025
      px      :     0.047957
      py      :     0.011762

  4 C s       :     2.892842  s :     2.892842
      pz      :     1.062729  p :     3.124593
      px      :     1.072302
      py      :     0.989562
      dz2     :     0.025581  d :     0.090494
      dxz     :     0.006865
      dyz     :     0.015221
      dx2y2   :     0.027097
      dxy     :     0.015730

  5 H s       :     0.884578  s :     0.884578
      pz      :     0.005446  p :     0.039551
      px      :     0.027641
      py      :     0.006464

  6 H s       :     0.895343  s :     0.895343
      pz      :     0.009917  p :     0.039724
      px      :     0.011645
      py      :     0.018163

  7 N s       :     3.193469  s :     3.193469
      pz      :     1.540887  p :     4.018573
      px      :     1.315625
      py      :     1.162061
      dz2     :     0.011512  d :     0.061480
      dxz     :     0.004217
      dyz     :     0.017292
      dx2y2   :     0.024802
      dxy     :     0.003657

  8 C s       :     2.872345  s :     2.872345
      pz      :     1.019232  p :     3.082620
      px      :     1.047093
      py      :     1.016295
      dz2     :     0.031120  d :     0.110784
      dxz     :     0.012510
      dyz     :     0.023337
      dx2y2   :     0.025014
      dxy     :     0.018803

  9 H s       :     0.885657  s :     0.885657
      pz      :     0.026975  p :     0.040405
      px      :     0.007406
      py      :     0.006024

 10 H s       :     0.886513  s :     0.886513
      pz      :     0.007250  p :     0.041094
      px      :     0.026454
      py      :     0.007390

 11 C s       :     2.908175  s :     2.908175
      pz      :     1.071690  p :     3.193665
      px      :     1.083352
      py      :     1.038623
      dz2     :     0.022658  d :     0.075192
      dxz     :     0.005108
      dyz     :     0.013499
      dx2y2   :     0.017640
      dxy     :     0.016286

 12 H s       :     0.897012  s :     0.897012
      pz      :     0.007047  p :     0.039786
      px      :     0.024656
      py      :     0.008083

 13 C s       :     2.907980  s :     2.907980
      pz      :     1.033849  p :     3.204459
      px      :     1.088130
      py      :     1.082480
      dz2     :     0.021479  d :     0.074925
      dxz     :     0.010301
      dyz     :     0.017361
      dx2y2   :     0.015750
      dxy     :     0.010033

 14 H s       :     0.897607  s :     0.897607
      pz      :     0.009678  p :     0.039600
      px      :     0.013204
      py      :     0.016718

 15 H s       :     0.897376  s :     0.897376
      pz      :     0.025771  p :     0.039640
      px      :     0.007318
      py      :     0.006550

 16 H s       :     0.904493  s :     0.904493
      pz      :     0.006945  p :     0.038532
      px      :     0.024151
      py      :     0.007436

 17 H s       :     0.891475  s :     0.891475
      pz      :     0.007308  p :     0.040289
      px      :     0.025787
      py      :     0.007194

 18 H s       :     0.896932  s :     0.896932
      pz      :     0.011263  p :     0.040422
      px      :     0.008662
      py      :     0.020497

 19 O s       :     3.461275  s :     3.461275
      pz      :     1.358017  p :     4.703547
      px      :     1.652027
      py      :     1.693503
      dz2     :     0.007857  d :     0.048189
      dxz     :     0.019922
      dyz     :     0.007581
      dx2y2   :     0.005031
      dxy     :     0.007798

 20 H s       :     0.680350  s :     0.680350
      pz      :     0.054246  p :     0.120052
      px      :     0.037580
      py      :     0.028226

 21 O s       :     3.547359  s :     3.547359
      pz      :     1.729880  p :     4.711353
      px      :     1.460858
      py      :     1.520615
      dz2     :     0.007598  d :     0.057275
      dxz     :     0.013777
      dyz     :     0.000825
      dx2y2   :     0.020501
      dxy     :     0.014575



                      *****************************
                      * MAYER POPULATION ANALYSIS *
                      *****************************

  NA   - Mulliken gross atomic population
  ZA   - Total nuclear charge
  QA   - Mulliken gross atomic charge
  VA   - Mayer's total valence
  BVA  - Mayer's bonded valence
  FA   - Mayer's free valence

  ATOM       NA         ZA         QA         VA         BVA        FA
  0 C      6.0169     6.0000    -0.0169     3.7332     3.7332    -0.0000
  1 C      5.2021     6.0000     0.7979     3.6352     3.6352    -0.0000
  2 H      0.7265     1.0000     0.2735     0.9037     0.9037     0.0000
  3 H      0.7187     1.0000     0.2813     0.9048     0.9048    -0.0000
  4 C      6.2194     6.0000    -0.2194     3.7474     3.7474     0.0000
  5 H      0.8426     1.0000     0.1574     0.9418     0.9418    -0.0000
  6 H      0.8847     1.0000     0.1153     0.9550     0.9550    -0.0000
  7 N      7.6895     7.0000    -0.6895     2.7699     2.7699     0.0000
  8 C      6.1345     6.0000    -0.1345     3.8050     3.8050     0.0000
  9 H      0.8584     1.0000     0.1416     0.9520     0.9520     0.0000
 10 H      0.8598     1.0000     0.1402     0.9539     0.9539     0.0000
 11 C      6.3189     6.0000    -0.3189     3.8447     3.8447    -0.0000
 12 H      0.8882     1.0000     0.1118     0.9529     0.9529    -0.0000
 13 C      6.3486     6.0000    -0.3486     3.8284     3.8284     0.0000
 14 H      0.8883     1.0000     0.1117     0.9542     0.9542    -0.0000
 15 H      0.8874     1.0000     0.1126     0.9536     0.9536     0.0000
 16 H      0.8870     1.0000     0.1130     0.9436     0.9436     0.0000
 17 H      0.8744     1.0000     0.1256     0.9524     0.9524     0.0000
 18 H      0.8853     1.0000     0.1147     0.9567     0.9567     0.0000
 19 O      8.6436     8.0000    -0.6436     1.8257     1.8257    -0.0000
 20 H      0.6303     1.0000     0.3697     0.8737     0.8737    -0.0000
 21 O      8.5948     8.0000    -0.5948     1.8793     1.8793    -0.0000

  Mayer bond orders larger than 0.100000
B(  0-C ,  1-C ) :   0.8966 B(  0-C ,  4-C ) :   0.9598 B(  0-C ,  5-H ) :   0.9609 
B(  0-C ,  7-N ) :   0.9769 B(  1-C , 19-O ) :   0.9556 B(  1-C , 21-O ) :   1.8082 
B(  2-H ,  7-N ) :   0.9073 B(  3-H ,  7-N ) :   0.8986 B(  4-C ,  8-C ) :   0.9701 
B(  4-C ,  9-H ) :   0.9679 B(  4-C , 10-H ) :   0.9565 B(  6-H , 13-C ) :   0.9766 
B(  8-C , 11-C ) :   0.9826 B(  8-C , 13-C ) :   0.9695 B(  8-C , 16-H ) :   0.9718 
B( 11-C , 12-H ) :   0.9719 B( 11-C , 14-H ) :   0.9766 B( 11-C , 15-H ) :   0.9764 
B( 13-C , 17-H ) :   0.9680 B( 13-C , 18-H ) :   0.9707 B( 19-O , 20-H ) :   0.8416 


-------
TIMINGS
-------

Total SCF time: 0 days 0 hours 0 min 23 sec 

Total time                  ....      23.044 sec
Sum of individual times     ....      22.029 sec  ( 95.6%)

SCF preparation             ....       0.020 sec  (  0.1%)
Fock matrix formation       ....      21.940 sec  ( 95.2%)
  Startup                   ....       0.001 sec  (  0.0% of F)
  Coulomb+Exchange Fock     ....      22.938 sec  (104.5% of F)
Diagonalization             ....       0.000 sec  (  0.0%)
Density matrix formation    ....       0.016 sec  (  0.1%)
Total Energy calculation    ....       0.001 sec  (  0.0%)
Population analysis         ....       0.003 sec  (  0.0%)
Orbital Transformation      ....       0.006 sec  (  0.0%)
Orbital Orthonormalization  ....       0.000 sec  (  0.0%)
DIIS solution               ....       0.026 sec  (  0.1%)
SOSCF solution              ....       0.017 sec  (  0.1%)
Finished LeanSCF after  23.0 sec

Maximum memory used throughout the entire LEANSCF-calculation: 15.3 MB

------------------------------------------------------------------------------
                                ORCA  MP2 
------------------------------------------------------------------------------

Freezing NCore=18 chemical core electrons
MP2 will be done in the AO integral direct mode
The Q1-step will be done using symmetric double matrices
Dimension of the basis                    ...  191
Memory devoted for MP2                    ... 4096 MB   
Memory needed for all in one shot         ...  722 MB
Number of MOs that can be treated together...  152      
MP2 density construction                  ... relaxed
The MP2 gradient is requested => amplitudes will be stored on disk
Total number of MOs              ...   27
Number of MOs treated per batch  ...   27 
Number of batches necessary      ...    1 
OPERATORS   0/  0 PASS   0
-----------------------------------------------
 MP2 CORRELATION ENERGY   :     -1.370014751 Eh
-----------------------------------------------


---------------------
MP2 DENSITY FORMATION
---------------------

Completing the external part of the density      ... done
Storing the unrelaxed density                    ... done

Calculating G(D)                                 ... done
Completing the Lagrangian                        ... done
Solving the Z-vector equations                   ... 
-------------------
SHARK CP-SCF DRIVER
-------------------

Dimension of the orbital basis          ...    191
Dimension of the CPSCF-problem          ...   5580
Number of operators                     ...      1
Max. number of iterations               ...    128
Convergence Tolerance                   ... 1.0e-04
Number of perturbations                 ...      1
Perturbation type                       ... REAL

----------------------------
POPLE LINEAR EQUATION SOLVER
----------------------------

  ITERATION   0:   ||err||_max =   1.2855e-01 (   2.6 sec)
  ITERATION   1:   ||err||_max =   3.3532e-02 (   2.7 sec)
  ITERATION   2:   ||err||_max =   1.4398e-02 (   2.7 sec)
  ITERATION   3:   ||err||_max =   3.6749e-03 (   2.7 sec)
  ITERATION   4:   ||err||_max =   1.3978e-03 (   2.7 sec)
  ITERATION   5:   ||err||_max =   3.9257e-04 (   2.7 sec)
  ITERATION   6:   ||err||_max =   1.5214e-04 (   2.7 sec)
  ITERATION   7:   ||err||_max =   6.2543e-05 (   2.7 sec)
                                                 ... done
Finalizing the relaxed density                   ... done
Transforming P to the AO basis                   ... done
Storing the relaxed density                      ... done

------------------------------------
ENERGY WEIGHTED DENSITY FINALIZATION
------------------------------------

Gathering the parts of the W-matrix              ...                                                      done
Forming the Z-density                            ... done
Transforming Z to the AO basis                   ... done
Calculating G(Z)                                 ... done
Finalizing the W-matrix                          ...                                                      done
Transforming W to the AO basis and storing       ... done

                *********************************************
                * UNRELAXED MP2 DENSITY POPULATION ANALYSIS *
                *********************************************

------------------------------------------------------------------------------
                           ORCA POPULATION ANALYSIS
------------------------------------------------------------------------------
Input electron density              ... 5.pmp2ur
BaseName (.gbw .S,...)              ... 5

                    ********************************
                    * MULLIKEN POPULATION ANALYSIS *
                    ********************************

-----------------------
MULLIKEN ATOMIC CHARGES
-----------------------
   0 C :   -0.022143
   1 C :    0.764030
   2 H :    0.272301
   3 H :    0.279854
   4 C :   -0.220823
   5 H :    0.158058
   6 H :    0.116120
   7 N :   -0.681641
   8 C :   -0.136970
   9 H :    0.142098
  10 H :    0.140557
  11 C :   -0.320937
  12 H :    0.112672
  13 C :   -0.350121
  14 H :    0.112616
  15 H :    0.113499
  16 H :    0.113965
  17 H :    0.126348
  18 H :    0.115374
  19 O :   -0.629672
  20 H :    0.366401
  21 O :   -0.571589
Sum of atomic charges:    0.0000000

--------------------------------
MULLIKEN REDUCED ORBITAL CHARGES
--------------------------------
  0 C s       :     3.203844  s :     3.203844
      pz      :     0.806815  p :     2.732730
      px      :     1.021391
      py      :     0.904524
      dz2     :     0.020322  d :     0.085568
      dxz     :     0.015982
      dyz     :     0.018540
      dx2y2   :     0.018845
      dxy     :     0.011879
  1 C s       :     2.964960  s :     2.964960
      pz      :     0.752253  p :     2.114532
      px      :     0.721130
      py      :     0.641149
      dz2     :     0.023079  d :     0.156478
      dxz     :     0.056963
      dyz     :     0.015267
      dx2y2   :     0.026322
      dxy     :     0.034847
  2 H s       :     0.699566  s :     0.699566
      pz      :     0.007266  p :     0.028133
      px      :     0.006181
      py      :     0.014686
  3 H s       :     0.692087  s :     0.692087
      pz      :     0.007590  p :     0.028060
      px      :     0.015820
      py      :     0.004650
  4 C s       :     3.229487  s :     3.229487
      pz      :     1.036480  p :     2.927139
      px      :     1.030889
      py      :     0.859770
      dz2     :     0.017582  d :     0.064197
      dxz     :     0.007267
      dyz     :     0.010833
      dx2y2   :     0.017413
      dxy     :     0.011101
  5 H s       :     0.827208  s :     0.827208
      pz      :     0.002538  p :     0.014734
      px      :     0.009765
      py      :     0.002431
  6 H s       :     0.868476  s :     0.868476
      pz      :     0.003982  p :     0.015404
      px      :     0.004561
      py      :     0.006861
  7 N s       :     3.608898  s :     3.608898
      pz      :     1.545858  p :     4.016007
      px      :     1.327343
      py      :     1.142806
      dz2     :     0.011312  d :     0.056735
      dxz     :     0.006318
      dyz     :     0.014830
      dx2y2   :     0.018871
      dxy     :     0.005404
  8 C s       :     3.228921  s :     3.228921
      pz      :     0.910862  p :     2.835617
      px      :     1.003343
      py      :     0.921412
      dz2     :     0.018673  d :     0.072431
      dxz     :     0.009804
      dyz     :     0.014621
      dx2y2   :     0.016475
      dxy     :     0.012857
  9 H s       :     0.842611  s :     0.842611
      pz      :     0.009696  p :     0.015291
      px      :     0.002952
      py      :     0.002643
 10 H s       :     0.844017  s :     0.844017
      pz      :     0.002913  p :     0.015426
      px      :     0.009499
      py      :     0.003014
 11 C s       :     3.245199  s :     3.245199
      pz      :     1.026223  p :     3.017815
      px      :     1.041104
      py      :     0.950488
      dz2     :     0.016240  d :     0.057922
      dxz     :     0.006449
      dyz     :     0.010213
      dx2y2   :     0.012782
      dxy     :     0.012239
 12 H s       :     0.871927  s :     0.871927
      pz      :     0.002992  p :     0.015401
      px      :     0.009069
      py      :     0.003340
 13 C s       :     3.251755  s :     3.251755
      pz      :     0.931038  p :     3.040377
      px      :     1.051676
      py      :     1.057663
      dz2     :     0.014180  d :     0.057989
      dxz     :     0.008669
      dyz     :     0.012747
      dx2y2   :     0.012876
      dxy     :     0.009517
 14 H s       :     0.871968  s :     0.871968
      pz      :     0.003925  p :     0.015417
      px      :     0.005152
      py      :     0.006339
 15 H s       :     0.871076  s :     0.871076
      pz      :     0.009464  p :     0.015425
      px      :     0.003111
      py      :     0.002849
 16 H s       :     0.870994  s :     0.870994
      pz      :     0.002845  p :     0.015041
      px      :     0.009173
      py      :     0.003022
 17 H s       :     0.858305  s :     0.858305
      pz      :     0.003054  p :     0.015347
      px      :     0.009370
      py      :     0.002923
 18 H s       :     0.868921  s :     0.868921
      pz      :     0.004502  p :     0.015704
      px      :     0.003621
      py      :     0.007582
 19 O s       :     3.838124  s :     3.838124
      pz      :     1.364233  p :     4.743198
      px      :     1.657900
      py      :     1.721065
      dz2     :     0.006700  d :     0.048349
      dxz     :     0.016483
      dyz     :     0.006864
      dx2y2   :     0.008404
      dxy     :     0.009898
 20 H s       :     0.591108  s :     0.591108
      pz      :     0.019916  p :     0.042491
      px      :     0.012703
      py      :     0.009872
 21 O s       :     3.873011  s :     3.873011
      pz      :     1.752656  p :     4.644257
      px      :     1.359233
      py      :     1.532368
      dz2     :     0.007943  d :     0.054321
      dxz     :     0.012271
      dyz     :     0.005026
      dx2y2   :     0.013350
      dxy     :     0.015731


                     *******************************
                     * LOEWDIN POPULATION ANALYSIS *
                     *******************************

----------------------
LOEWDIN ATOMIC CHARGES
----------------------
   0 C :   -0.019410
   1 C :    0.205072
   2 H :    0.128021
   3 H :    0.133646
   4 C :   -0.108191
   5 H :    0.076082
   6 H :    0.065099
   7 N :   -0.268991
   8 C :   -0.067276
   9 H :    0.074050
  10 H :    0.072408
  11 C :   -0.177107
  12 H :    0.063401
  13 C :   -0.187244
  14 H :    0.063019
  15 H :    0.063210
  16 H :    0.057341
  17 H :    0.068389
  18 H :    0.062703
  19 O :   -0.204157
  20 H :    0.197202
  21 O :   -0.297267

-------------------------------
LOEWDIN REDUCED ORBITAL CHARGES
-------------------------------
  0 C s       :     2.871338  s :     2.871338
      pz      :     0.954281  p :     2.991214
      px      :     1.038903
      py      :     0.998030
      dz2     :     0.038685  d :     0.156859
      dxz     :     0.029800
      dyz     :     0.035055
      dx2y2   :     0.033944
      dxy     :     0.019374
  1 C s       :     2.852724  s :     2.852724
      pz      :     0.900465  p :     2.615283
      px      :     0.996885
      py      :     0.717934
      dz2     :     0.046663  d :     0.326920
      dxz     :     0.122383
      dyz     :     0.029575
      dx2y2   :     0.056715
      dxy     :     0.071585
  2 H s       :     0.786648  s :     0.786648
      pz      :     0.023311  p :     0.085331
      px      :     0.017115
      py      :     0.044905
  3 H s       :     0.780654  s :     0.780654
      pz      :     0.023195  p :     0.085700
      px      :     0.049731
      py      :     0.012775
  4 C s       :     2.892509  s :     2.892509
      pz      :     1.056579  p :     3.106143
      px      :     1.066026
      py      :     0.983538
      dz2     :     0.029464  d :     0.109539
      dxz     :     0.010568
      dyz     :     0.019001
      dx2y2   :     0.030924
      dxy     :     0.019582
  5 H s       :     0.879554  s :     0.879554
      pz      :     0.006868  p :     0.044364
      px      :     0.029636
      py      :     0.007860
  6 H s       :     0.890562  s :     0.890562
      pz      :     0.011342  p :     0.044340
      px      :     0.013090
      py      :     0.019908
  7 N s       :     3.191497  s :     3.191497
      pz      :     1.529250  p :     3.992183
      px      :     1.307590
      py      :     1.155343
      dz2     :     0.016514  d :     0.085311
      dxz     :     0.009014
      dyz     :     0.022102
      dx2y2   :     0.029644
      dxy     :     0.008037
  8 C s       :     2.872433  s :     2.872433
      pz      :     1.013326  p :     3.065083
      px      :     1.041451
      py      :     1.010305
      dz2     :     0.034881  d :     0.129760
      dxz     :     0.016291
      dyz     :     0.027225
      dx2y2   :     0.028826
      dxy     :     0.022536
  9 H s       :     0.880742  s :     0.880742
      pz      :     0.029081  p :     0.045207
      px      :     0.008736
      py      :     0.007390
 10 H s       :     0.881667  s :     0.881667
      pz      :     0.008588  p :     0.045925
      px      :     0.028540
      py      :     0.008797
 11 C s       :     2.907337  s :     2.907337
      pz      :     1.066163  p :     3.176722
      px      :     1.077986
      py      :     1.032572
      dz2     :     0.026266  d :     0.093047
      dxz     :     0.008585
      dyz     :     0.017077
      dx2y2   :     0.021200
      dxy     :     0.019919
 12 H s       :     0.892193  s :     0.892193
      pz      :     0.008300  p :     0.044406
      px      :     0.026692
      py      :     0.009413
 13 C s       :     2.907178  s :     2.907178
      pz      :     1.027561  p :     3.187076
      px      :     1.082598
      py      :     1.076917
      dz2     :     0.025084  d :     0.092990
      dxz     :     0.013967
      dyz     :     0.021113
      dx2y2   :     0.019270
      dxy     :     0.013556
 14 H s       :     0.892760  s :     0.892760
      pz      :     0.011044  p :     0.044221
      px      :     0.014717
      py      :     0.018459
 15 H s       :     0.892536  s :     0.892536
      pz      :     0.027878  p :     0.044254
      px      :     0.008575
      py      :     0.007800
 16 H s       :     0.899109  s :     0.899109
      pz      :     0.008339  p :     0.043550
      px      :     0.026338
      py      :     0.008874
 17 H s       :     0.886708  s :     0.886708
      pz      :     0.008610  p :     0.044904
      px      :     0.027827
      py      :     0.008467
 18 H s       :     0.892134  s :     0.892134
      pz      :     0.012763  p :     0.045164
      px      :     0.009999
      py      :     0.022402
 19 O s       :     3.459311  s :     3.459311
      pz      :     1.349505  p :     4.672182
      px      :     1.641442
      py      :     1.681235
      dz2     :     0.012730  d :     0.072664
      dxz     :     0.025055
      dyz     :     0.012592
      dx2y2   :     0.009732
      dxy     :     0.012555
 20 H s       :     0.680267  s :     0.680267
      pz      :     0.055108  p :     0.122531
      px      :     0.038550
      py      :     0.028874
 21 O s       :     3.544385  s :     3.544385
      pz      :     1.715113  p :     4.671298
      px      :     1.450869
      py      :     1.505316
      dz2     :     0.012425  d :     0.081584
      dxz     :     0.018733
      dyz     :     0.005300
      dx2y2   :     0.025702
      dxy     :     0.019424


                      *****************************
                      * MAYER POPULATION ANALYSIS *
                      *****************************

  NA   - Mulliken gross atomic population
  ZA   - Total nuclear charge
  QA   - Mulliken gross atomic charge
  VA   - Mayer's total valence
  BVA  - Mayer's bonded valence
  FA   - Mayer's free valence

  ATOM       NA         ZA         QA         VA         BVA        FA
  0 C      6.0221     6.0000    -0.0221     3.8088     3.5319     0.2769
  1 C      5.2360     6.0000     0.7640     3.7017     3.4099     0.2918
  2 H      0.7277     1.0000     0.2723     0.9109     0.8649     0.0461
  3 H      0.7201     1.0000     0.2799     0.9121     0.8662     0.0459
  4 C      6.2208     6.0000    -0.2208     3.8323     3.5602     0.2721
  5 H      0.8419     1.0000     0.1581     0.9504     0.9028     0.0476
  6 H      0.8839     1.0000     0.1161     0.9642     0.9168     0.0474
  7 N      7.6816     7.0000    -0.6816     2.9643     2.6343     0.3300
  8 C      6.1370     6.0000    -0.1370     3.8836     3.6022     0.2815
  9 H      0.8579     1.0000     0.1421     0.9610     0.9119     0.0491
 10 H      0.8594     1.0000     0.1406     0.9633     0.9138     0.0495
 11 C      6.3209     6.0000    -0.3209     3.9310     3.6802     0.2508
 12 H      0.8873     1.0000     0.1127     0.9624     0.9152     0.0472
 13 C      6.3501     6.0000    -0.3501     3.9165     3.6631     0.2534
 14 H      0.8874     1.0000     0.1126     0.9635     0.9163     0.0472
 15 H      0.8865     1.0000     0.1135     0.9629     0.9159     0.0471
 16 H      0.8860     1.0000     0.1140     0.9536     0.9032     0.0504
 17 H      0.8737     1.0000     0.1263     0.9616     0.9145     0.0471
 18 H      0.8846     1.0000     0.1154     0.9662     0.9181     0.0480
 19 O      8.6297     8.0000    -0.6297     2.0856     1.7273     0.3583
 20 H      0.6336     1.0000     0.3664     0.8807     0.8360     0.0447
 21 O      8.5716     8.0000    -0.5716     2.1463     1.7470     0.3992

  Mayer bond orders larger than 0.100000
B(  0-C ,  1-C ) :   0.8481 B(  0-C ,  4-C ) :   0.9061 B(  0-C ,  5-H ) :   0.9236 
B(  0-C ,  7-N ) :   0.9199 B(  1-C , 19-O ) :   0.9022 B(  1-C , 21-O ) :   1.6892 
B(  2-H ,  7-N ) :   0.8701 B(  3-H ,  7-N ) :   0.8617 B(  4-C ,  8-C ) :   0.9155 
B(  4-C ,  9-H ) :   0.9297 B(  4-C , 10-H ) :   0.9181 B(  6-H , 13-C ) :   0.9394 
B(  8-C , 11-C ) :   0.9292 B(  8-C , 13-C ) :   0.9166 B(  8-C , 16-H ) :   0.9326 
B( 11-C , 12-H ) :   0.9350 B( 11-C , 14-H ) :   0.9397 B( 11-C , 15-H ) :   0.9395 
B( 13-C , 17-H ) :   0.9311 B( 13-C , 18-H ) :   0.9332 B( 19-O , 20-H ) :   0.8065 



                *******************************************
                * RELAXED MP2 DENSITY POPULATION ANALYSIS *
                *******************************************

------------------------------------------------------------------------------
                           ORCA POPULATION ANALYSIS
------------------------------------------------------------------------------
Input electron density              ... 5.pmp2re
BaseName (.gbw .S,...)              ... 5

                    ********************************
                    * MULLIKEN POPULATION ANALYSIS *
                    ********************************

-----------------------
MULLIKEN ATOMIC CHARGES
-----------------------
   0 C :   -0.035833
   1 C :    0.569760
[...]
   5 H :    0.077411
   6 H :    0.068877
   7 N :   -0.255463
   8 C :   -0.070687
   9 H :    0.077381
  10 H :    0.071793
  11 C :   -0.190166
  12 H :    0.067375
  13 C :   -0.200379
  14 H :    0.067315
  15 H :    0.067640
  16 H :    0.062133
  17 H :    0.071676
  18 H :    0.067197
  19 O :   -0.178542
  20 H :    0.186981
  21 O :   -0.232840

-------------------------------
LOEWDIN REDUCED ORBITAL CHARGES
-------------------------------
  0 C s       :     2.874796  s :     2.874796
      pz      :     0.970219  p :     3.015399
      px      :     1.046422
      py      :     0.998759
      dz2     :     0.038595  d :     0.148929
      dxz     :     0.026265
      dyz     :     0.032948
      dx2y2   :     0.032107
      dxy     :     0.019014
  1 C s       :     2.863980  s :     2.863980
      pz      :     0.919422  p :     2.690228
      px      :     0.977507
      py      :     0.793299
      dz2     :     0.044598  d :     0.304052
      dxz     :     0.111671
      dyz     :     0.029533
      dx2y2   :     0.054322
      dxy     :     0.063928
  2 H s       :     0.788128  s :     0.788128
      pz      :     0.024024  p :     0.083530
      px      :     0.016311
      py      :     0.043195
  3 H s       :     0.785729  s :     0.785729
      pz      :     0.022352  p :     0.083730
      px      :     0.048401
      py      :     0.012977
  4 C s       :     2.894973  s :     2.894973
      pz      :     1.058436  p :     3.120337
      px      :     1.070906
      py      :     0.990995
      dz2     :     0.027427  d :     0.103890
      dxz     :     0.010202
      dyz     :     0.018427
      dx2y2   :     0.029975
      dxy     :     0.017859
  5 H s       :     0.878097  s :     0.878097
      pz      :     0.007359  p :     0.044492
      px      :     0.028778
      py      :     0.008355
  6 H s       :     0.887248  s :     0.887248
      pz      :     0.011499  p :     0.043874
      px      :     0.012871
      py      :     0.019504
  7 N s       :     3.209516  s :     3.209516
      pz      :     1.532214  p :     3.963242
      px      :     1.277510
      py      :     1.153518
      dz2     :     0.016162  d :     0.082704
      dxz     :     0.008916
      dyz     :     0.021015
      dx2y2   :     0.028789
      dxy     :     0.007822
  8 C s       :     2.871974  s :     2.871974
      pz      :     1.016125  p :     3.075646
      px      :     1.047677
      py      :     1.011844
      dz2     :     0.032539  d :     0.123068
      dxz     :     0.015730
      dyz     :     0.026668
      dx2y2   :     0.027898
      dxy     :     0.020232
  9 H s       :     0.877628  s :     0.877628
      pz      :     0.027982  p :     0.044991
      px      :     0.009245
      py      :     0.007765
 10 H s       :     0.882972  s :     0.882972
      pz      :     0.008433  p :     0.045235
      px      :     0.027856
      py      :     0.008947
 11 C s       :     2.910149  s :     2.910149
      pz      :     1.072330  p :     3.192851
      px      :     1.085254
      py      :     1.035267
      dz2     :     0.024480  d :     0.087166
      dxz     :     0.008126
      dyz     :     0.016015
      dx2y2   :     0.020011
      dxy     :     0.018534
 12 H s       :     0.888839  s :     0.888839
      pz      :     0.008286  p :     0.043786
      px      :     0.026157
      py      :     0.009343
 13 C s       :     2.909991  s :     2.909991
      pz      :     1.029871  p :     3.203465
      px      :     1.089383
      py      :     1.084211
      dz2     :     0.022507  d :     0.086923
      dxz     :     0.013606
      dyz     :     0.020454
      dx2y2   :     0.017833
      dxy     :     0.012524
 14 H s       :     0.888932  s :     0.888932
      pz      :     0.011087  p :     0.043753
      px      :     0.014143
      py      :     0.018524
 15 H s       :     0.888594  s :     0.888594
      pz      :     0.027187  p :     0.043766
      px      :     0.008691
      py      :     0.007888
 16 H s       :     0.894432  s :     0.894432
      pz      :     0.008492  p :     0.043436
      px      :     0.025973
      py      :     0.008970
 17 H s       :     0.884054  s :     0.884054
      pz      :     0.008698  p :     0.044270
      px      :     0.027080
      py      :     0.008492
 18 H s       :     0.887895  s :     0.887895
      pz      :     0.012908  p :     0.044908
      px      :     0.009988
      py      :     0.022012
 19 O s       :     3.484983  s :     3.484983
      pz      :     1.343977  p :     4.621202
      px      :     1.614640
      py      :     1.662585
      dz2     :     0.012139  d :     0.072358
      dxz     :     0.024874
      dyz     :     0.012092
      dx2y2   :     0.010713
      dxy     :     0.012540
 20 H s       :     0.693072  s :     0.693072
      pz      :     0.051802  p :     0.119946
      px      :     0.041159
      py      :     0.026986
 21 O s       :     3.561180  s :     3.561180
      pz      :     1.685099  p :     4.592709
      px      :     1.447293
      py      :     1.460318
      dz2     :     0.011736  d :     0.078950
      dxz     :     0.018453
      dyz     :     0.005750
      dx2y2   :     0.023594
      dxy     :     0.019417


                      *****************************
                      * MAYER POPULATION ANALYSIS *
                      *****************************

  NA   - Mulliken gross atomic population
  ZA   - Total nuclear charge
  QA   - Mulliken gross atomic charge
  VA   - Mayer's total valence
  BVA  - Mayer's bonded valence
  FA   - Mayer's free valence

  ATOM       NA         ZA         QA         VA         BVA        FA
  0 C      6.0425     6.0000    -0.0425     3.8924     3.6191     0.2733
  1 C      5.4262     6.0000     0.5738     3.9118     3.6326     0.2792
  2 H      0.7423     1.0000     0.2577     0.9172     0.8708     0.0464
  3 H      0.7398     1.0000     0.2602     0.9225     0.8763     0.0463
  4 C      6.2025     6.0000    -0.2025     3.8933     3.6244     0.2689
  5 H      0.8602     1.0000     0.1398     0.9552     0.9077     0.0475
  6 H      0.8901     1.0000     0.1099     0.9652     0.9175     0.0478
  7 N      7.6089     7.0000    -0.6089     3.0329     2.7066     0.3263
  8 C      6.1005     6.0000    -0.1005     3.9552     3.6776     0.2777
  9 H      0.8701     1.0000     0.1299     0.9643     0.9151     0.0492
 10 H      0.8783     1.0000     0.1217     0.9701     0.9205     0.0496
 11 C      6.3224     6.0000    -0.3224     3.9569     3.7072     0.2497
 12 H      0.8902     1.0000     0.1098     0.9651     0.9178     0.0474
 13 C      6.3448     6.0000    -0.3448     3.9481     3.6959     0.2522
 14 H      0.8916     1.0000     0.1084     0.9652     0.9179     0.0473
 15 H      0.8901     1.0000     0.1099     0.9650     0.9178     0.0472
 16 H      0.8954     1.0000     0.1046     0.9557     0.9050     0.0507
 17 H      0.8790     1.0000     0.1210     0.9656     0.9183     0.0473
 18 H      0.8890     1.0000     0.1110     0.9712     0.9233     0.0479
 19 O      8.5285     8.0000    -0.5285     2.2069     1.8527     0.3542
 20 H      0.6602     1.0000     0.3398     0.9043     0.8600     0.0443
 21 O      8.4472     8.0000    -0.4472     2.3033     1.9127     0.3906

  Mayer bond orders larger than 0.100000
B(  0-C ,  1-C ) :   0.8632 B(  0-C ,  4-C ) :   0.9218 B(  0-C ,  5-H ) :   0.9102 
B(  0-C ,  7-N ) :   0.9478 B(  1-C , 19-O ) :   0.9733 B(  1-C , 21-O ) :   1.7835 
B(  2-H ,  7-N ) :   0.8702 B(  3-H ,  7-N ) :   0.8650 B(  4-C ,  8-C ) :   0.9337 
B(  4-C ,  9-H ) :   0.9157 B(  4-C , 10-H ) :   0.9094 B(  6-H , 13-C ) :   0.9319 
B(  8-C , 11-C ) :   0.9420 B(  8-C , 13-C ) :   0.9379 B(  8-C , 16-H ) :   0.9222 
B( 11-C , 12-H ) :   0.9314 B( 11-C , 14-H ) :   0.9334 B( 11-C , 15-H ) :   0.9336 
B( 13-C , 17-H ) :   0.9275 B( 13-C , 18-H ) :   0.9246 B( 19-O , 20-H ) :   0.8135 



----------------------------------
MP2 DERIVATIVE INTEGRAL GENERATION
----------------------------------

Input SCF Electron Density              ... 5.scfp
Input Correlated Electron Density       ... 5.pmp2re
Input Energy Weighted Density           ... 5.wmp2.tmp
Input Wavefunction Amplitudes           ... 5.mp2tsaa.tmp

Nuclear repulsion gradient              ... done (  0.0 sec)
HCore & Overlap gradient  (SHARK)       ... done (  0.1 sec)
Analytic two-electron gradient terms    ... 
  Batch handling in the gradient evaluation:
  General contraction                   ... not used
  Memory available                      ... 4081.8 MB
  Memory per occupied orbital in Q2     ...    7.5 MB
  Memory per occupied orbital in Q3     ...    0.0 MB
  Total memory requirement per |i>      ...    7.6 MB
  Number of orbitals treated per batch  ...     27
  Number of batches to be done          ...      1
done ( 21.7 sec)

---------------------------------------
MP2 TOTAL ENERGY:     -440.363342556 Eh
---------------------------------------

The final MP2 gradient
  0:  -0.00003084   0.00001101  -0.00001115
  1:   0.00001613  -0.00007161  -0.00003329
  2:   0.00001732   0.00000279   0.00000546
  3:   0.00000413   0.00000585  -0.00000495
  4:   0.00000890   0.00001203   0.00001957
  5:   0.00000373  -0.00001728   0.00001728
  6:  -0.00000055   0.00000403   0.00000583
  7:  -0.00002209   0.00000505  -0.00000268
  8:  -0.00001018  -0.00000742   0.00000370
  9:   0.00000836  -0.00000492  -0.00000490
 10:   0.00000026  -0.00000176  -0.00001429
 11:  -0.00001036   0.00000750   0.00001133
 12:   0.00000202  -0.00000758  -0.00000732
 13:  -0.00000914   0.00000372  -0.00002302
 14:   0.00000495  -0.00000314   0.00000162
 15:   0.00000625   0.00000031  -0.00000375
 16:   0.00000287   0.00000339  -0.00000830
 17:   0.00000457   0.00000161   0.00000458
 18:   0.00000732   0.00000753   0.00000742
 19:  -0.00005179   0.00004492   0.00000610
 20:   0.00002354  -0.00000518  -0.00000346
 21:   0.00002461   0.00000914   0.00003420

-----------------------------------
NORM OF THE MP2 GRADIENT:  0.000138
-----------------------------------

Maximum memory used throughout the entire MP2-calculation: 780.0 MB

-------------------------   --------------------
FINAL SINGLE POINT ENERGY      -440.363342556315
-------------------------   --------------------

                                *** OPTIMIZATION RUN DONE ***


------------------------------------------------------------------------------
                              ORCA PROPERTY CALCULATIONS
------------------------------------------------------------------------------

GBWName                                 ... 5.gbw
Number of atoms                         ...     22
Number of basis functions               ...    191
Max core memory                         ...   4096 MB

Electric properties:
Dipole moment                           ... YES
Quadrupole moment                       ...  NO
Static polarizability (Dipole/Dipole)   ...  NO
Static polarizability (Dipole/Quad.)    ...  NO
Static polarizability (Quad./Quad.)     ...  NO
Static polarizability (Velocity)        ...  NO
Static hyperpolarizability              ...  NO

Atomic electric properties:
Dipole moment                           ...  NO
Quadrupole moment                       ...  NO
Static polarizability                   ...  NO

Choice of electric origin               ... Center of mass
Position of electric origin             ...   -17.669735    10.649168    -3.168956

General magnetic properties:
Magnetizability                         ...  NO

EPR properties:
g-Tensor (aka g-matrix)                 ...  NO
Zero-Field splitting spin-orbit         ...  NO
Zero-field splitting spin-spin          ...  NO
Hyperfine couplings                     ...  NO (   0 nuclei)
Quadrupole couplings                    ...  NO (   0 nuclei)
Contact density                         ...  NO (   0 nuclei)

NMR properties:
Chemical shifts                         ...  NO (   0 nuclei)
Spin-rotation constants                 ...  NO (   0 nuclei)
Spin-spin couplings                     ...  NO (   0 nuclei,    0 pairs)

Choice of magnetic origin               ... GIAO
Position of magnetic origin             ...     0.000000     0.000000     0.000000

Properties with geometric perturbations:
SCF Hessian                             ...  NO
IR spectrum                             ...  NO
VCD spectrum                            ...  NO
X-ray spectroscopy properties:
SCF XES/XAS/RIXS spectra                ...  NO

SCF SOC stabilization energy            ...  NO
Diagonal Born-Oppenheimer correction    ...  NO

-------------
DIPOLE MOMENT
-------------

Method             : SCF
Type of density    : Electron Density
Multiplicity       :   1
Irrep              :   0
Energy             :  -438.9887583815871608 Eh
Basis              : AO
                                X                 Y                 Z
Electronic contribution:      3.237752972       9.867051682       3.745469139
Nuclear contribution   :     -3.581338283      -9.629961530      -3.425239491
                        -----------------------------------------
Total Dipole Moment    :     -0.343585312       0.237090152       0.320229648
                        -----------------------------------------
Magnitude (a.u.)       :      0.526127013
Magnitude (Debye)      :      1.337308590



--------------------
Rotational spectrum 
--------------------
 
Rotational constants in cm-1:             0.077576             0.036022             0.029415 
Rotational constants in MHz :          2325.659425          1079.903124           881.851386 

Dipole components along the rotational axes: 
x,y,z [a.u.] :    -0.212302     0.256220    -0.407540 
x,y,z [Debye]:    -0.539628     0.651258    -1.035885 

 

-------------
DIPOLE MOMENT
-------------

Method             : MP2
Type of density    : Electron Density
Multiplicity       :   1
Level              : Unrelaxed density
Irrep              :   0
Energy             :     0.0000000000000000 Eh
Basis              : AO
                                X                 Y                 Z
Electronic contribution:      3.269980192       9.867424686       3.752199083
Nuclear contribution   :     -3.581338283      -9.629961530      -3.425239491
                        -----------------------------------------
Total Dipole Moment    :     -0.311358091       0.237463156       0.326959592
                        -----------------------------------------
Magnitude (a.u.)       :      0.510132518
Magnitude (Debye)      :      1.296653815



--------------------
Rotational spectrum 
--------------------
 
Rotational constants in cm-1:             0.077576             0.036022             0.029415 
Rotational constants in MHz :          2325.659425          1079.903124           881.851386 

Dipole components along the rotational axes: 
x,y,z [a.u.] :    -0.222274     0.262422    -0.376781 
x,y,z [Debye]:    -0.564975     0.667024    -0.957702 

 

-------------
DIPOLE MOMENT
-------------

Method             : MP2
Type of density    : Electron Density
Multiplicity       :   1
Level              : Relaxed density
Irrep              :   0
Energy             :     0.0000000000000000 Eh
Basis              : AO
                                X                 Y                 Z
Electronic contribution:      3.384413898       9.900308450       3.801525566
Nuclear contribution   :     -3.581338283      -9.629961530      -3.425239491
                        -----------------------------------------
Total Dipole Moment    :     -0.196924385       0.270346921       0.376286076
                        -----------------------------------------
Magnitude (a.u.)       :      0.503446007
Magnitude (Debye)      :      1.279658053



--------------------
Rotational spectrum 
--------------------
 
Rotational constants in cm-1:             0.077576             0.036022             0.029415 
Rotational constants in MHz :          2325.659425          1079.903124           881.851386 

Dipole components along the rotational axes: 
x,y,z [a.u.] :    -0.293309     0.301522    -0.276608 
x,y,z [Debye]:    -0.745532     0.766408    -0.703082 

 

Dipole moment calculation done in   0.0 sec 

Maximum memory used throughout the entire PROP-calculation: 10.3 MB

--------------------------------
SUGGESTED CITATIONS FOR THIS RUN
--------------------------------

Below you find a list of papers that are relevant to this ORCA run
We neither can nor want to force you to cite these papers, but we appreciate if you do
You receive ORCA, which is the product of decades of hard work by many enthusiastic individuals, for free
The only thing we kindly ask in return is that you cite our papers,
We deeply appreciate it, if you show your appreciation for ORCA by not just citing the generic ORCA reference.

Please note that relegating all ORCA citations to the supporting information does *not* help us.
SI sections are not indexed - citations you put there will not count into any citation statistics
But we need these citations in order to attract the funding resources that allow us to do what we are doing

Therefore, if you are a happy ORCA user, please consider citing a few of the papers listed below in the main body of your paper

In addition to the list printed below, the program has created the file 5.bibtex that contains the list in bibtex format
You can import this file easily into all common literature databanks and citation aid programs


List of essential papers. We consider these as the minimum necessary citations

  1. Neese, F.
     Software update: the ORCA program system, version 6.0
     WIRES Comput. Molec. Sci. 2025 15(1), e70019
     doi.org/10.1002/wcms.7019

List of papers to cite with high priority. The work reported in these papers was absolutely
necessary for this run to complete.
Our perspective: the developers of density functionals and basis sets usually get cited in chemistry papers
Good! But without the algorithms to do something with them, the functionals or basis sets would not do anything.
Hence, in our opinion, the algorithm design and method developments papers are equally worthy of getting cited

  1. Neese, F.
     The SHARK Integral Generation and Digestion System
     J. Comp. Chem. 2022 44(3), 381
     doi.org/10.1002/jcc.26942

List of suggested additional citations. These are papers that are important in the 'surrounding' of 
of this run, or papers that preceded the highly important papers. If you like your results we are grateful for a citation.

  1. Neese, F.
     The ORCA program system
     WIRES Comput. Molec. Sci. 2012 2(1), 73-78
     doi.org/10.1002/wcms.81
  2. Neese, F.
     Software update: the ORCA program system, version 4.0
     WIRES Comput. Molec. Sci. 2018 8(1), 1-6
     doi.org/10.1002/wcms.1327
  3. Neese, F.; Wennmohs, F.; Becker, U.; Riplinger, C.
     The ORCA quantum chemistry program package
     J. Chem. Phys. 2020 152(22), 224108
     doi.org/10.1063/5.0004608
  4. Neese, F.
     Software update: The ORCA program system—Version 5.0
     WIRES Comput. Molec. Sci. 2022 12(1), e1606
     doi.org/10.1002/wcms.1606

List of optional additional citations

  1. Neese, F.
     Approximate second-order SCF convergence for spin unrestricted wavefunctions
     Chem. Phys. Lett. 2000 325(1-3), 93-98
     doi.org/10.1016/s0009-2614(00)00662-x

Timings for individual modules:

Sum of individual times          ...      651.250 sec (=  10.854 min)
Startup calculation              ...        3.647 sec (=   0.061 min)   0.6 %
SCF iterations                   ...      121.787 sec (=   2.030 min)  18.7 %
Property calculations            ...        0.036 sec (=   0.001 min)   0.0 %
MP2 module                       ...      525.767 sec (=   8.763 min)  80.7 %
Geometry relaxation              ...        0.013 sec (=   0.000 min)   0.0 %
                             ****ORCA TERMINATED NORMALLY****
TOTAL RUN TIME: 0 days 0 hours 10 minutes 51 seconds 425 msec
