
                                 *****************
                                 * O   R   C   A *
                                 *****************

                                            #,                                       
                                            ###                                      
                                            ####                                     
                                            #####                                    
                                            ######                                   
                                           ########,                                 
                                     ,,################,,,,,                         
                               ,,#################################,,                 
                          ,,##########################################,,             
                       ,#########################################, ''#####,          
                    ,#############################################,,   '####,        
                  ,##################################################,,,,####,       
                ,###########''''           ''''###############################       
              ,#####''   ,,,,##########,,,,          '''####'''          '####       
            ,##' ,,,,###########################,,,                        '##       
           ' ,,###''''                  '''############,,,                           
         ,,##''                                '''############,,,,        ,,,,,,###''
      ,#''                                            '''#######################'''  
     '                                                          ''''####''''         
             ,#######,   #######,   ,#######,      ##                                
            ,#'     '#,  ##    ##  ,#'     '#,    #''#        ,####,    ,#,          
            ##       ##  ##   ,#'  ##            #'  '#       #'       ,# #          
            ##       ##  #######   ##           ,######,      #####,      #          
            '#,     ,#'  ##    ##  '#,     ,#' ,#      #,     #,   #      #          
             '#######'   ##     ##  '#######'  #'      '#     '####' #    #          



                #########################################################
                #                        -***-                          #
                #          Department of theory and spectroscopy        #
                #                                                       #
                #                      Frank Neese                      #
                #                                                       #
                #     Directorship, Architecture, Infrastructure        #
                #                    SHARK, DRIVERS                     #
                #        Core code/Algorithms in most modules           #
                #                                                       #
                #        Max Planck Institute fuer Kohlenforschung      #
                #                Kaiser Wilhelm Platz 1                 #
                #                 D-45470 Muelheim/Ruhr                 #
                #                      Germany                          #
                #                                                       #
                #                  All rights reserved                  #
                #                        -***-                          #
                #########################################################


                         Program Version 6.1.0  -  RELEASE   -
                                (GIT: $679e74b$)
                          ($2025-06-10 18:02:51 +0200$)


 With contributions from (in alphabetic order):
[Max-Planck-Institut fuer Kohlenforschung]                               
  Daniel Aravena         : Magnetic Suceptibility                        
  Michael Atanasov       : Ab Initio Ligand Field Theory (pilot matlab implementation)
  Alexander A. Auer      : GIAO ZORA, VPT2 properties, NMR spectrum      
  Ute Becker             : All parallelization in ORCA, NUMFREQ, NUMCALC 
  Giovanni Bistoni       : ED, misc. LED, open-shell LED, HFLD           
  Dmytro Bykov           : pre 5.0 version of the SCF Hessian            
  Marcos Casanova-Páez   : Triplet and SCS-CIS(D). UHF-(DLPNO)-IP/EA/STEOM-CCSD. UHF-CVS-IP/STEOM-CCSD   
  Vijay G. Chilkuri      : MRCI spin determinant printing, contributions to CSF-ICE 
  Pauline Colinet        : FMM embedding                                 
  Dipayan Datta          : RHF DLPNO-CCSD density                        
  Achintya Kumar Dutta   : EOM-CC, STEOM-CC                              
  Nicolas Foglia         : Exact transition moments, OPA infrastructure, MCD improvements    
  Dmitry Ganyushin       : Spin-Orbit,Spin-Spin,Magnetic field MRCI      
  Miquel Garcia-Rates    : C-PCM and meta-GGA Hessian, CCSD/C-PCM, Gaussian charge scheme 
  Tiago L. C. Gouveia    : GS-ROHF, GS-ROCIS                             
  Yang Guo               : DLPNO-NEVPT2, F12-NEVPT2, CIM, IAO-localization        
  Andreas Hansen         : Spin unrestricted coupled pair/coupled cluster methods 
  Ingolf Harden          : AUTO-CI MPn and infrastructure                
  Benjamin Helmich-Paris : MC-RPA, TRAH-(SCF,CASSCF), AVAS, COSX integrals, SCF dyn. polar., MC-PDFT, srDFT 
  Lee Huntington         : MR-EOM, pCC                                   
  Robert Izsak           : Overlap fitted RIJCOSX, COSX-SCS-MP3, EOM     
  Riya Kayal             : Wick's Theorem for AUTO-CI, AUTO-CI UHF-CCSDT 
  Emily Kempfer          : AUTO-CI RHF CISDT and CCSDT, approximate NEVPT4
  Christian Kollmar      : KDIIS, OOCD, Brueckner-CCSD(T), CCSD density, CASPT2, CASPT2-K, improved NEVPT2 
  Axel Koslowski         : Symmetry handling                             
  Simone Kossmann        : meta-GGA functionals, TD-DFT gradient, OOMP2, (MP2 Hessian; deprecated post 5.0) 
  Lucas Lang             : DCDCAS, Hyperfine gauge corrections, ICE-SOC+SSC
  Marvin Lechner         : AUTO-CI (C++ implementation), FIC-MRCC        
  Spencer Leger          : CASSCF response                               
  Dagmar Lenk            : GEPOL surface, SMD, ORCA-2-JSON               
  Dimitrios Liakos       : Extrapolation schemes; Compound Job, Property file
  Dimitrios Manganas     : Further ROCIS development; embedding schemes. LFT, Crystal Embedding 
  Dimitrios Pantazis     : SARC Basis sets                               
  Anastasios Papadopoulos: AUTO-CI, single reference methods and gradients 
  Taras Petrenko         : pre 6.0 DFT Hessian and TD-DFT gradient,  ECA, NRVS 
  Petra Pikulova         : Analytic Raman intensities                    
  Peter Pinski           : DLPNO-MP2, DLPNO-MP2 Gradient                 
  Shashank Vittal Rao    : ES-AILFT, MagRelax                            
  Christoph Reimann      : Effective Core Potentials                     
  Marius Retegan         : Local ZFS, SOC                                
  Christoph Riplinger    : Optimizer, TS searches, QM/MM, DLPNO-CCSD(T), (RO)-DLPNO pert. Triples 
  Michael Roemelt        : Original ROCIS implementation, recursive CI coupling coefficients
  Masaaki Saitow         : Open-shell DLPNO-CCSD energy and density      
  Barbara Sandhoefer     : DKH picture change effects                    
  Yorick L. A. Schmerwitz: GMF and freeze-and-release deltaSCF, NEB S-IDPP initial path                    
  Kantharuban Sivalingam : CASSCF convergence/infrastructure, NEVPT2, NEVPT3, NEVPT4(SD), FIC-MRCI and CEPA variants
  Bernardo de Souza      : ESD, SOC TD-DFT                               
  Georgi L. Stoychev     : AutoAux, RI-MP2 NMR, DLPNO-MP2 response, X2C  
  Van Anh Tran           : RI-MP2 g-tensors                              
  Willem Van den Heuvel  : Paramagnetic NMR                              
  Zikuan Wang            : NOTCH, Electric field optimization            
  Frank Wennmohs         : Technical directorship and infrastructure     
  Hang Xu                : AUTO-CI-Response properties                   
                                                                         
[FACCTs GmbH]                                                            
  Markus Bursch, Nicolas Foglia, Miquel Garcia-Rates, Ingolf Harden, Hagen Neugebauer, Anastasios Papadopoulos, 
  Christoph Riplinger, Bernardo de Souza, Georgi L. Stoychev                                                    
                                                                 
  APM, various basis sets, CI-OPT, improved COSX, DLPNO-Multilevel,           
  DOCKER, DRACO, updates on ESD, Fragmentator, GOAT, IRC, LR-CPCM, L-BFGS, MBIS, meta-GGA TD-DFT gradient, ML-optimized integration grids, 
  MM, NACMEs, nearIR, NEB, NEB-TS, NL-DFT gradient (VV10), 2- and 3-layer-ONIOM, interface openCOSMO-RS, QMMM,   
  Crystal-QMMM, RESP, rigid body optimization, SF, symmetry and pop. for TD-DFT, various functionals, SOLVATOR                                   
                                                                         
[Other institutions]                                                     
  V. Asgeirsson          : NEB                                           
  Christoph Bannwarth    : sTDA-DFT, sTD-DFT, PBEh-3c, B97-3c, D3        
  Giovanni Bistoni       : ETS/NOCV, ADLD/ADEX, COVALED                  
  Martin Brehm           : Molecular dynamics                            
  Ronald Cardenas        : ETS/NOCV                                      
  Martina Colucci        : COVALED                                       
  Sebastian Ehlert       : rSCAN, r2SCAN, r2SCAN-3c, D4, dhf basis sets  
  Marvin Friede          : D4 for Fr, Ra, Ac-Lr                          
  Lars Goerigk           : TD-DFT with DH, B97 family of functionals     
  Stefan Grimme          : VdW corrections, initial TS optimization, DFT functionals, gCP, sTDA/sTD-DF 
  Waldemar Hujo          : DFT-NL                                        
  H. Jonsson             : NEB                                           
  Holger Kruse           : gCP                                           
  Marcel Mueller         : wB97X-3c, vDZP basis set                      
  Hagen Neugebauer       : wr2SCAN, Native XTB                           
  Gianluca Regni         : ADLD/ADEX                                     
  Tobias Risthaus        : pre 6.0 range-separated hybrid DFT and stability analysis
  Lukas Wittmann         : regularized MP2, r2SCAN double-hybrids, wr2SCAN        
                                                                         
We gratefully acknowledge several colleagues who have allowed us to      
interface, adapt or use parts of their codes:                            
  Ed Valeev, F. Pavosevic, A. Kumar             : LibInt (2-el integral package), F12 methods 
  Garnet Chan, S. Sharma, J. Yang, R. Olivares  : DMRG                   
  Ulf Ekstrom                                   : XCFun DFT Library      
  Mihaly Kallay                                 : mrcc  (arbitrary order and MRCC methods)
  Frank Weinhold                                : gennbo (NPA and NBO analysis)           
  Simon Mueller                                 : openCOSMO-RS                            
  Christopher J. Cramer and Donald G. Truhlar   : smd solvation model                     
  S Lehtola, MJT Oliveira, MAL Marques          : LibXC Library                           
  Liviu Ungur et al                             : ANISO software                          


 Your calculation uses the libint2 library for the computation of 2-el integrals
 For citations please refer to: http://libint.valeyev.net

 Your ORCA version has been built with support for libXC version: 7.0.0
 For citations please refer to: https://libxc.gitlab.io

 This ORCA versions uses:
   CBLAS   interface :  Fast vector & matrix operations
   LAPACKE interface :  Fast linear algebra routines
   SCALAPACK package :  Parallel linear algebra routines
   Shared memory     :  Shared parallel matrices
   BLAS/LAPACK       :  OpenBLAS 0.3.29  USE64BITINT DYNAMIC_ARCH NO_AFFINITY Haswell SINGLE_THREADED
        Core in use  :  Haswell
   Copyright (c) 2011-2014, The OpenBLAS Project


  ***********************************
  * Starting time: Sat Aug 30 15:46:05 2025
  * Host name:     chemlab03
  * Process ID:    79756
  * Working dir.:  /home/vivek/mm-project/vivek/xtb-goat/B97-D-opt/f/5
  ***********************************



***************************************
The coordinates will be read from file: /home/vivek/mm-project/vivek/xtb-goat/xtb-goat/f/F_CONF/5.xyz
***************************************


Your calculation utilizes empirical dispersion correction


Warning: RI is on but no J-basis has been assigned. Assigning Def2/J (nothing to worry about!)
================================================================================

----- Orbital basis set information -----
Your calculation utilizes the basis: 6-31G**
   H-He, Li-Ne : W. J. Hehre, R. Ditchfield and J.A. Pople, J. Chem. Phys. 56, 2257 (1972).
                 Note: He and Ne are unpublished basis sets taken from the Gaussian program.
                 Note: Li and B from J. D. Dill and J. A. Pople, J. Chem. Phys. 62, 2921 (1975).
   Na - Ar     : M. M. Francl, W. J. Pietro, W. J. Hehre, J. S. Binkley, M. S. Gordon, 
                 D. J. DeFrees and J. A. Pople, J. Chem. Phys. 77, 3654 (1982).
   K - Zn      : V. A. Rassolov, J. A. Pople, M. A. Ratner, and T. L. Windus, J. Chem. Phys. 109, 1223 (1998).

----- AuxJ basis set information -----
Your calculation utilizes the auxiliary basis: def2/J
   H-Rn: F. Weigend, Phys. Chem. Chem. Phys. 8, 1057 (2006).
   Fr-Lr: K. Eichkorn, F. Weigend, O. Treutler, R. Ahlrichs; Theor. Chem. Acc. 97, 119 (1997).

================================================================================
                                        WARNINGS
                       Please study these warnings very carefully!
================================================================================


WARNING: Geometry Optimization
  ===> : Switching off AutoStart
         For restart on a previous wavefunction, please use MOREAD

INFO   : The exchange functional is Grimme's B97(-D)
         As described in S. Grimme, J. Comput. Chem. 27, 1787 (2006).
         Note that this functional defaults to a pure GGA. 

INFO   : The correlation functional is Grimme's B97(-D)
         As described in S. Grimme, J. Comput. Chem. 27, 1787 (2006).

================================================================================
                                       INPUT FILE
================================================================================
NAME = 5.inp
|  1> ! B97-D 6-31G** opt
|  2> 
|  3> * xyzfile 0 1 /home/vivek/mm-project/vivek/xtb-goat/xtb-goat/f/F_CONF/5.xyz
|  4> 
|  5>                          ****END OF INPUT****
================================================================================

                       *****************************
                       * Geometry Optimization Run *
                       *****************************

Geometry optimization settings:
Update method            Update   .... BFGS
Choice of coordinates    CoordSys .... (2022) Redundant Internals
Initial Hessian          InHess   .... Almloef's Model
Max. no of cycles        MaxIter  .... 69

Convergence Tolerances:
Energy Change            TolE     ....  5.0000e-06 Eh
Max. Gradient            TolMAXG  ....  3.0000e-04 Eh/bohr
RMS Gradient             TolRMSG  ....  1.0000e-04 Eh/bohr
Max. Displacement        TolMAXD  ....  4.0000e-03 bohr
RMS Displacement         TolRMSD  ....  2.0000e-03 bohr
Strict Convergence                .... False

------------------------------------------------------------------------------
                        ORCA OPTIMIZATION COORDINATE SETUP
------------------------------------------------------------------------------

The optimization will be done in redundant internal coordinates (2022)
Making redundant internal coordinates   ...  (2022 redundants) done
Evaluating the initial hessian          ...  (Almloef) done
Evaluating the coordinates              ...  done
Calculating the B-matrix                .... done
Calculating the G-matrix                .... done
The number of degrees of freedom        ....  108

    -----------------------------------------------------------------
                    Redundant Internal Coordinates


    -----------------------------------------------------------------
         Definition                    Initial Value    Approx d2E/dq
    -----------------------------------------------------------------
      1. B(C   1,C   0)                  1.3836         0.639614   
      2. B(H   4,C   2)                  1.0807         0.372653   
      3. B(C   5,C   1)                  1.3845         0.637531   
      4. B(H   7,C   1)                  1.0802         0.373288   
      5. B(C   8,C   6)                  1.4991         0.418548   
      6. B(C   8,C   2)                  1.3902         0.624432   
      7. B(C   8,C   5)                  1.3896         0.625669   
      8. B(H   9,C   0)                  1.0798         0.373826   
      9. B(C  10,H   3)                  1.0801         0.373430   
     10. B(C  10,C   2)                  1.3826         0.642106   
     11. B(C  10,C   0)                  1.3853         0.635764   
     12. B(H  11,C   5)                  1.0815         0.371538   
     13. B(C  12,C   6)                  1.5602         0.334338   
     14. B(H  13,C   6)                  1.0912         0.358507   
     15. B(H  14,C   6)                  1.0925         0.356764   
     16. B(C  15,C  12)                  1.5149         0.394955   
     17. B(N  17,C  12)                  1.4432         0.460189   
     18. B(O  18,H  16)                  0.9711         0.499184   
     19. B(O  18,C  15)                  1.3365         0.681049   
     20. B(H  19,N  17)                  1.0152         0.424492   
     21. B(O  20,H  19)                  2.4108         0.010000   
     22. B(O  20,C  15)                  1.2010         1.120365   
     23. B(H  21,C  12)                  1.0955         0.352945   
     24. B(H  22,N  17)                  1.0142         0.426027   
     25. A(C   1,C   0,C  10)          119.7200         0.438488   
     26. A(C   1,C   0,H   9)          120.1376         0.357036   
     27. A(H   9,C   0,C  10)          120.1422         0.356670   
     28. A(C   0,C   1,C   5)          120.0865         0.438707   
     29. A(C   0,C   1,H   7)          120.1232         0.356948   
     30. A(C   5,C   1,H   7)          119.7903         0.356751   
     31. A(C   8,C   2,C  10)          120.5990         0.437374   
     32. A(H   4,C   2,C   8)          119.4170         0.355393   
     33. A(H   4,C   2,C  10)          119.9834         0.357081   
     34. A(C   1,C   5,C   8)          120.6110         0.436967   
     35. A(C   8,C   5,H  11)          119.6947         0.355331   
     36. A(C   1,C   5,H  11)          119.6902         0.356466   
     37. A(C  12,C   6,H  14)          108.4399         0.317999   
     38. A(H  13,C   6,H  14)          108.9240         0.290213   
     39. A(C   8,C   6,H  14)          110.6006         0.329944   
     40. A(C  12,C   6,H  13)          108.4194         0.318252   
     41. A(C   8,C   6,H  13)          110.4202         0.330210   
     42. A(C   8,C   6,C  12)          109.9789         0.363520   
     43. A(C   5,C   8,C   6)          120.7840         0.405354   
     44. A(C   2,C   8,C   6)          120.3139         0.405212   
     45. A(C   2,C   8,C   5)          118.8437         0.435335   
     46. A(C   0,C  10,H   3)          120.0092         0.356606   
     47. A(C   0,C  10,C   2)          120.1387         0.438795   
     48. A(C   2,C  10,H   3)          119.8521         0.357207   
     49. A(C  15,C  12,N  17)          109.1246         0.377859   
     50. A(C   6,C  12,N  17)          114.8040         0.367169   
     51. A(C   6,C  12,C  15)          106.0890         0.359938   
     52. A(N  17,C  12,H  21)          108.9183         0.332552   
     53. A(C  15,C  12,H  21)          109.1762         0.326222   
     54. A(C   6,C  12,H  21)          108.5981         0.317442   
     55. A(C  12,C  15,O  20)          124.9054         0.442304   
     56. A(C  12,C  15,O  18)          112.1265         0.404659   
     57. A(O  18,C  15,O  20)          122.8999         0.485386   
     58. A(C  12,N  17,H  19)          109.7604         0.339984   
     59. A(H  19,N  17,H  22)          108.9592         0.301580   
     60. A(C  12,N  17,H  22)          110.6296         0.340189   
     61. A(C  15,O  18,H  16)          110.4534         0.373518   
     62. D(C   5,C   1,C   0,C  10)     -0.0934         0.028422   
     63. D(C   5,C   1,C   0,H   9)   -179.9611         0.028422   
     64. D(H   7,C   1,C   0,H   9)      0.0411         0.028422   
     65. D(H   7,C   1,C   0,C  10)    179.9089         0.028422   
     66. D(H  11,C   5,C   1,H   7)     -0.5911         0.028225   
     67. D(H  11,C   5,C   1,C   0)    179.4111         0.028225   
     68. D(C   8,C   5,C   1,C   0)      0.1455         0.028225   
     69. D(C   8,C   5,C   1,H   7)   -179.8567         0.028225   
     70. D(C   6,C   8,C   5,C   1)   -177.5208         0.027118   
     71. D(C   6,C   8,C   2,C  10)    177.6342         0.027005   
     72. D(C   2,C   8,C   5,C   1)     -0.2916         0.027118   
     73. D(C   2,C   8,C   5,H  11)   -179.5571         0.027118   
     74. D(C   5,C   8,C   6,C  12)     95.5230         0.012957   
     75. D(C   5,C   8,C   2,C  10)      0.3916         0.027005   
     76. D(C   5,C   8,C   2,H   4)   -179.9015         0.027005   
     77. D(C   2,C   8,C   6,H  13)     37.9447         0.012957   
     78. D(C   2,C   8,C   6,C  12)    -81.6656         0.012957   
     79. D(C   2,C   8,C   6,H  14)    158.5847         0.012957   
     80. D(C   6,C   8,C   5,H  11)      3.2136         0.027118   
     81. D(C   6,C   8,C   2,H   4)     -2.6589         0.027005   
     82. D(C   5,C   8,C   6,H  13)   -144.8668         0.012957   
     83. D(H   3,C  10,C   2,C   8)    179.7016         0.028659   
     84. D(H   3,C  10,C   2,H   4)     -0.0036         0.028659   
     85. D(C   0,C  10,C   2,C   8)     -0.3458         0.028659   
     86. D(C   0,C  10,C   2,H   4)    179.9490         0.028659   
     87. D(H   3,C  10,C   0,H   9)      0.0132         0.028058   
     88. D(H   3,C  10,C   0,C   1)   -179.8545         0.028058   
     89. D(C   2,C  10,C   0,H   9)   -179.9393         0.028058   
     90. D(C   2,C  10,C   0,C   1)      0.1930         0.028058   
     91. D(C  15,C  12,C   6,H  13)     57.4283         0.010000   
     92. D(C  15,C  12,C   6,C   8)    178.2498         0.010000   
     93. D(N  17,C  12,C   6,H  14)     59.8975         0.010000   
     94. D(N  17,C  12,C   6,H  13)    178.0207         0.010000   
     95. D(N  17,C  12,C   6,C   8)    -61.1578         0.010000   
     96. D(C  15,C  12,C   6,H  14)    -60.6949         0.010000   
     97. D(O  20,C  15,C  12,N  17)    -35.0841         0.011590   
     98. D(O  20,C  15,C  12,C   6)     89.1196         0.011590   
     99. D(O  18,C  15,C  12,H  21)     28.9148         0.011590   
    100. D(O  18,C  15,C  12,N  17)    147.8560         0.011590   
    101. D(O  18,C  15,C  12,C   6)    -87.9403         0.011590   
    102. D(H  22,N  17,C  12,C  15)    164.4083         0.018078   
    103. D(H  22,N  17,C  12,C   6)     45.5017         0.018078   
    104. D(H  19,N  17,C  12,H  21)    163.2371         0.018078   
    105. D(H  19,N  17,C  12,C  15)     44.1354         0.018078   
    106. D(H  19,N  17,C  12,C   6)    -74.7712         0.018078   
    107. D(H  16,O  18,C  15,O  20)      0.8760         0.034557   
    108. D(H  16,O  18,C  15,C  12)    178.0043         0.034557   
    -----------------------------------------------------------------

Number of atoms                         .... 23
Number of degrees of freedom            .... 108


         *************************************************************
         *                GEOMETRY OPTIMIZATION CYCLE   1            *
         *************************************************************
---------------------------------
CARTESIAN COORDINATES (ANGSTROEM)
---------------------------------
  C     -6.475344    0.997302   -1.394099
  C     -5.288045    0.773011   -2.068203
  C     -5.265924    1.143052    0.672232
  H     -7.385882    1.353421    0.510193
  H     -5.257959    1.286986    1.743247
  C     -4.091645    0.733839   -1.372536
  C     -2.769805    0.928652    0.754738
  H     -5.291437    0.627969   -3.138625
  C     -4.067826    0.915281    0.004982
  H     -7.408994    1.027395   -1.935761
  C     -6.461516    1.180348   -0.021052
  H     -3.168468    0.548569   -1.904548
  C     -2.282273    2.397766    0.950337
  H     -2.893548    0.472595    1.738319
  H     -2.002055    0.380199    0.203932
  C     -0.998189    2.311099    1.749330
  H     -0.388596    2.225510    3.554189
  N     -2.029863    3.119942   -0.273463
  O     -1.223848    2.313346    3.066674
  H     -1.161350    2.798034   -0.689069
  O      0.099565    2.196691    1.275697
  H     -3.033586    2.940363    1.534425
  H     -2.784913    2.976472   -0.935272

----------------------------
CARTESIAN COORDINATES (A.U.)
----------------------------
  NO LB      ZA    FRAG     MASS         X           Y           Z
   0 C     6.0000    0    12.011  -12.236627    1.884629   -2.634465
   1 C     6.0000    0    12.011   -9.992957    1.460779   -3.908338
   2 C     6.0000    0    12.011   -9.951155    2.160055    1.270335
   3 H     1.0000    0     1.008  -13.957294    2.557596    0.964125
   4 H     1.0000    0     1.008   -9.936102    2.432052    3.294259
   5 C     6.0000    0    12.011   -7.732088    1.386754   -2.593717
   6 C     6.0000    0    12.011   -5.234173    1.754897    1.426249
   7 H     1.0000    0     1.008   -9.999366    1.186690   -5.931142
   8 C     6.0000    0    12.011   -7.687077    1.729630    0.009415
   9 H     1.0000    0     1.008  -14.000970    1.941495   -3.658057
  10 C     6.0000    0    12.011  -12.210496    2.230534   -0.039783
  11 H     1.0000    0     1.008   -5.987538    1.036645   -3.599074
  12 C     6.0000    0    12.011   -4.312872    4.531121    1.795877
  13 H     1.0000    0     1.008   -5.468014    0.893074    3.284948
  14 H     1.0000    0     1.008   -3.783335    0.718471    0.385376
  15 C     6.0000    0    12.011   -1.886304    4.367345    3.305755
  16 H     1.0000    0     1.008   -0.734341    4.205605    6.716444
  17 N     7.0000    0    14.007   -3.835885    5.895836   -0.516771
  18 O     8.0000    0    15.999   -2.312738    4.371590    5.795173
  19 H     1.0000    0     1.008   -2.194633    5.287517   -1.302151
  20 O     8.0000    0    15.999    0.188150    4.151144    2.410718
  21 H     1.0000    0     1.008   -5.732646    5.556481    2.899643
  22 H     1.0000    0     1.008   -5.262722    5.624717   -1.767407

--------------------------------
INTERNAL COORDINATES (ANGSTROEM)
--------------------------------
 C      0   0   0     0.000000000000     0.00000000     0.00000000
 C      1   0   0     1.383619667466     0.00000000     0.00000000
 C      1   2   0     2.398679671562    89.82166932     0.00000000
 H      3   1   2     2.136523739110    55.96879354   180.14248734
 H      3   1   2     1.080672312562   149.94624603   180.07930327
 C      2   1   3     1.384507796824   120.08645881     0.00000000
 C      3   1   2     2.506668115716   121.68423737     1.40964513
 H      2   1   3     1.080208875620   120.12322649   180.00505532
 C      6   2   1     1.389620329816   120.61103372     0.14551638
 H      1   2   3     1.079817133921   120.13764465   180.03607361
 C      4   3   1     1.080105406799    34.14193961     0.02858889
 H      6   2   1     1.081487883544   119.69021369   179.41110982
 C      7   3   1     1.560205843153   103.57702091   103.95374807
 H      7   3   1     1.091206685954    87.27698928   212.25027312
 H      7   3   1     1.092533309623   136.56132188   327.21007591
 C     13   7   3     1.514850599999   106.08899043   149.08521327
 H     16  13   7     1.906946337840   140.60092700   273.55983715
 N     13   7   3     1.443238684773   114.80398944   269.67763977
 O     17  16  13     0.971098057066    41.04798333   357.08660752
 H     18  13   7     1.015218186404   109.76035320   285.22878588
 O     16  13   7     1.201033391613   124.90536707    89.11959349
 H     13   7   3     1.095463506266   108.59811181    31.84276115
 H     18  13   7     1.014235642087   110.62961631    45.50167033

---------------------------
INTERNAL COORDINATES (A.U.)
---------------------------
 C      0   0   0     0.000000000000     0.00000000     0.00000000
 C      1   0   0     2.614662245018     0.00000000     0.00000000
 C      1   2   0     4.532847662257    89.82166932     0.00000000
 H      3   1   2     4.037444745539    55.96879354   180.14248734
 H      3   1   2     2.042174711254   149.94624603   180.07930327
 C      2   1   3     2.616340566275   120.08645881     0.00000000
 C      3   1   2     4.736916247336   121.68423737     1.40964513
 H      2   1   3     2.041298942353   120.12322649   180.00505532
 C      6   2   1     2.626001853482   120.61103372     0.14551638
 H      1   2   3     2.040558657827   120.13764465   180.03607361
 C      4   3   1     2.041103414619    34.14193961     0.02858889
 H      6   2   1     2.043715917053   119.69021369   179.41110982
 C      7   3   1     2.948361756103   103.57702091   103.95374807
 H      7   3   1     2.062081791956    87.27698928   212.25027312
 H      7   3   1     2.064588747375   136.56132188   327.21007591
 C     13   7   3     2.862652767805   106.08899043   149.08521327
 H     16  13   7     3.603606330603   140.60092700   273.55983715
 N     13   7   3     2.727325860102   114.80398944   269.67763977
 O     17  16  13     1.835109377037    41.04798333   357.08660752
 H     18  13   7     1.918484338479   109.76035320   285.22878588
 O     16  13   7     2.269624187843   124.90536707    89.11959349
 H     13   7   3     2.070126016549   108.59811181    31.84276115
 H     18  13   7     1.916627598807   110.62961631    45.50167033

---------------------
BASIS SET INFORMATION
---------------------
There are 4 groups of distinct atoms

 Group   1 Type C   : 10s4p1d contracted to 3s2p1d pattern {631/31/1}
 Group   2 Type H   : 4s1p contracted to 2s1p pattern {31/1}
 Group   3 Type N   : 10s4p1d contracted to 3s2p1d pattern {631/31/1}
 Group   4 Type O   : 10s4p1d contracted to 3s2p1d pattern {631/31/1}

Atom   0C    basis set group =>   1
Atom   1C    basis set group =>   1
Atom   2C    basis set group =>   1
Atom   3H    basis set group =>   2
Atom   4H    basis set group =>   2
Atom   5C    basis set group =>   1
Atom   6C    basis set group =>   1
Atom   7H    basis set group =>   2
Atom   8C    basis set group =>   1
Atom   9H    basis set group =>   2
Atom  10C    basis set group =>   1
Atom  11H    basis set group =>   2
Atom  12C    basis set group =>   1
Atom  13H    basis set group =>   2
Atom  14H    basis set group =>   2
Atom  15C    basis set group =>   1
Atom  16H    basis set group =>   2
Atom  17N    basis set group =>   3
Atom  18O    basis set group =>   4
Atom  19H    basis set group =>   2
Atom  20O    basis set group =>   4
Atom  21H    basis set group =>   2
Atom  22H    basis set group =>   2
---------------------------------
AUXILIARY/J BASIS SET INFORMATION
---------------------------------
There are 4 groups of distinct atoms

 Group   1 Type C   : 12s5p4d2f1g contracted to 6s4p3d1f1g pattern {711111/2111/211/2/1}
 Group   2 Type H   : 5s2p1d contracted to 3s1p1d pattern {311/2/1}
 Group   3 Type N   : 12s5p4d2f1g contracted to 6s4p3d1f1g pattern {711111/2111/211/2/1}
 Group   4 Type O   : 12s5p4d2f1g contracted to 6s4p3d1f1g pattern {711111/2111/211/2/1}

Atom   0C    basis set group =>   1
Atom   1C    basis set group =>   1
Atom   2C    basis set group =>   1
Atom   3H    basis set group =>   2
Atom   4H    basis set group =>   2
Atom   5C    basis set group =>   1
Atom   6C    basis set group =>   1
Atom   7H    basis set group =>   2
Atom   8C    basis set group =>   1
Atom   9H    basis set group =>   2
Atom  10C    basis set group =>   1
Atom  11H    basis set group =>   2
Atom  12C    basis set group =>   1
Atom  13H    basis set group =>   2
Atom  14H    basis set group =>   2
Atom  15C    basis set group =>   1
Atom  16H    basis set group =>   2
Atom  17N    basis set group =>   3
Atom  18O    basis set group =>   4
Atom  19H    basis set group =>   2
Atom  20O    basis set group =>   4
Atom  21H    basis set group =>   2
Atom  22H    basis set group =>   2
------------------------------------------------------------------------------
                             ORCA STARTUP CALCULATIONS
                           -- RI-GTO INTEGRALS CHOSEN --
------------------------------------------------------------------------------
------------------------------------------------------------------------------
                   ___                                                        
                  /   \      - P O W E R E D   B Y -                         
                 /     \                                                     
                 |  |  |   _    _      __       _____    __    __             
                 |  |  |  | |  | |    /  \     |  _  \  |  |  /  |          
                  \  \/   | |  | |   /    \    | | | |  |  | /  /          
                 / \  \   | |__| |  /  /\  \   | |_| |  |  |/  /          
                |  |  |   |  __  | /  /__\  \  |    /   |      \           
                |  |  |   | |  | | |   __   |  |    \   |  |\   \          
                \     /   | |  | | |  |  |  |  | |\  \  |  | \   \       
                 \___/    |_|  |_| |__|  |__|  |_| \__\ |__|  \__/        
                                                                              
                      - O R C A' S   B I G   F R I E N D -                    
                                      &                                       
                       - I N T E G R A L  F E E D E R -                       
                                                                              
 v1 FN, 2020, v2 2021, v3 2022-2024                                           
------------------------------------------------------------------------------


----------------------
SHARK INTEGRAL PACKAGE
----------------------

Number of atoms                             ...     23
Number of basis functions                   ...    223
Number of shells                            ...    105
Maximum angular momentum                    ...      2
Integral batch strategy                     ... SHARK/LIBINT Hybrid
RI-J (if used) integral strategy            ... SPLIT-RIJ (Revised 2003 algorithm where possible)
Printlevel                                  ...      1
Contraction scheme used                     ... SEGMENTED contraction
Prescreening option                         ... SCHWARTZ
   Thresh                                   ... 2.500e-11
   Tcut                                     ... 2.500e-12
   Tpresel                                  ... 2.500e-12 
Coulomb Range Separation                    ... NOT USED
Exchange Range Separation                   ... NOT USED
Multipole approximations                    ... NOT USED
Finite Nucleus Model                        ... NOT USED
CABS basis                                  ... NOT available
Auxiliary Coulomb fitting basis             ... AVAILABLE
   # of basis functions in Aux-J            ...    709
   # of shells in Aux-J                     ...    235
   Maximum angular momentum in Aux-J        ...      4
Auxiliary J/K fitting basis                 ... NOT available
Auxiliary Correlation fitting basis         ... NOT available
Auxiliary 'external' fitting basis          ... NOT available

Checking pre-screening integrals            ... done (  0.0 sec) Dimension = 105
   => SHARK Basis and OBASIS are compatible. Storing Pre-screening
Shell pair information
Shell pair cut-off parameter TPreSel        ...   2.5e-12
Total number of shell pairs                 ...      5565
Shell pairs after pre-screening             ...      4680
Total number of primitive shell pairs       ...     28015
Primitive shell pairs kept                  ...     14952
          la=0 lb=0:   1434 shell pairs
          la=1 lb=0:   1715 shell pairs
          la=1 lb=1:    545 shell pairs
          la=2 lb=0:    573 shell pairs
          la=2 lb=1:    351 shell pairs
          la=2 lb=2:     62 shell pairs

Checking whether 4 symmetric matrices of dimension 223 fit in memory
:Max Core in MB      =   4096.00
 MB in use           =      9.78
 MB left             =   4086.22
 MB needed           =      0.76
 Data fit in memory  = YES
Calculating RI/J V-Matrix + Cholesky decomp.... done (  0.0 sec)
Calculating Nuclear repulsion               ... done (  0.0 sec) ENN=    673.981182309571 Eh

Diagonalization of the overlap matrix:
Smallest eigenvalue                        ... 4.376e-04
Time for diagonalization                   ...    0.003 sec
Threshold for overlap eigenvalues          ... 1.000e-07
Number of eigenvalues below threshold      ... 0
Time for construction of square roots      ...    0.001 sec
Total time needed                          ...    0.004 sec

-------------------
DFT GRID GENERATION
-------------------

General Integration Accuracy     IntAcc      ... 4.388
Radial Grid Type                 RadialGrid  ... OptM3 with GC (2021)
Angular Grid (max. ang.)         AngularGrid ... 4 (Lebedev-302)
Angular grid pruning method      GridPruning ... 4 (adaptive)
Weight generation scheme         WeightScheme... mBecke (2022)
Basis function cutoff            BFCut       ... 1.0000e-11
Integration weight cutoff        WCut        ... 1.0000e-14
Partially contracted basis set               ... off
Rotationally invariant grid construction     ... off
Angular grids for H and He will be reduced by one unit

Total number of grid points                  ...   107188
Total number of batches                      ...     1686
Average number of points per batch           ...       63
Average number of grid points per atom       ...     4660
Grids setup in   0.5 sec
Initializing property integral containers    ... done (  0.0 sec)

SHARK setup successfully completed in   0.6 seconds

Maximum memory used throughout the entire STARTUP-calculation: 45.5 MB
-------------------------------------------------------------------------------
                                 ORCA GUESS
                   Start orbitals & Density for SCF / CASSCF
-------------------------------------------------------------------------------

------------
SCF SETTINGS
------------
Hamiltonian:
 Density Functional     Method          .... DFT(GTOs)
 Exchange Functional    Exchange        .... B97(D)
 Correlation Functional Correlation     .... B97(D)
 Gradients option       PostSCFGGA      .... off
 RI-approximation to the Coulomb term is turned on
   Number of AuxJ basis functions       .... 709


General Settings:
 Integral files         IntName         .... 5
 Hartree-Fock type      HFTyp           .... RHF
 Total Charge           Charge          ....    0
 Multiplicity           Mult            ....    1
 Number of Electrons    NEL             ....   88
 Basis Dimension        Dim             ....  223
 Nuclear Repulsion      ENuc            ....    673.9811823096 Eh

Convergence Acceleration:
 AO-DIIS                CNVDIIS         .... on
   Start iteration      DIISMaxIt       ....    12
   Startup error        DIISStart       ....  0.200000
   # of expansion vecs  DIISMaxEq       ....     5
   Bias factor          DIISBfac        ....   1.050
   Max. coefficient     DIISMaxC        ....  10.000
 MO-DIIS                CNVKDIIS        .... off
 Trust-Rad. Augm. Hess. CNVTRAH         .... auto
   Auto Start mean grad. ratio tolernc. ....  1.125000
   Auto Start start iteration           ....    50
   Auto Start num. interpolation iter.  ....    10
   Max. Number of Micro iterations      ....    24
   Max. Number of Macro iterations      .... Maxiter - #DIIS iter
   Number of Davidson start vectors     ....     2
   Converg. threshold    (grad. norm)   ....   1.000e-05
   Grad. Scal. Fac. for Micro threshold ....   0.100
   Minimum threshold for Micro iter.    ....   1.000e-02
   NR start threshold (gradient norm)   ....   1.000e-04
   Initial trust radius                 ....   0.400
   Minimum AH scaling param. (alpha)    ....   1.000
   Maximum AH scaling param. (alpha)    .... 1000.000
   Quad. conv. algorithm                .... NR
   White noise on init. David. guess    .... on
   Maximum white noise                  ....   0.010
   Pseudo random numbers                .... off
   Inactive MOs                         .... canonical
   Orbital update algorithm             .... Taylor
   Preconditioner                       .... Diag
   Full preconditioner red. dimension   ....   250
 SOSCF                 CNVSOSCF           .... on
   Start iteration     SOSCFMaxIt         ....   150
   Startup grad/error  SOSCFStart         ....  0.003300
   Hessian update      SOSCFHessUp        .... L-BFGS
   Autom. constraints  SOSCFAutoConstrain .... off
 Level Shifting         CNVShift        .... on
   Level shift para.    LevelShift      ....    0.2500
   Turn off err/grad.   ShiftErr        ....    0.0010
 Zerner damping         CNVZerner       .... off
 Static damping         CNVDamp         .... on
   Fraction old density DampFac         ....    0.7000
   Max. Damping (<1)    DampMax         ....    0.9800
   Min. Damping (>=0)   DampMin         ....    0.0000
   Turn off err/grad.   DampErr         ....    0.1000

SCF Procedure:
 Maximum # iterations   MaxIter         ....   125
 SCF integral mode      SCFMode         .... Direct
   Integral package                     .... SHARK and LIBINT hybrid scheme
 Reset frequency        DirectResetFreq ....    20
 Integral Threshold     Thresh          ....  2.500e-11 Eh
 Primitive CutOff       TCut            ....  2.500e-12 Eh

Convergence Tolerance:
 Convergence Check Mode ConvCheckMode   .... Total+1el-Energy
 Convergence forced     ConvForced      .... 0
 Energy Change          TolE            ....  1.000e-08 Eh
 1-El. energy change                    ....  1.000e-05 Eh
 Orbital Gradient       TolG            ....  1.000e-05
 Orbital Rotation angle TolX            ....  1.000e-05
 DIIS Error             TolErr          ....  5.000e-07

------------------------------
INITIAL GUESS: MODEL POTENTIAL
------------------------------
Loading Hartree-Fock densities                     ... done
Calculating cut-offs                               ... done
Initializing the effective Hamiltonian             ... done
Setting up the integral package (SHARK)            ... done
Starting the Coulomb interaction                   ... done (   0.1 sec)
Making the grid                                    ... done (   0.1 sec)
Mapping shells                                     ... done
Starting the XC term evaluation                    ... done (   0.1 sec)
  promolecular density results
     # of electrons  =     87.993684229
     EX              =    -71.443630500
     EC              =     -3.853277763
     EX+EC           =    -75.296908263
Transforming the Hamiltonian                       ... done (   0.0 sec)
Diagonalizing the Hamiltonian                      ... done (   0.0 sec)
Back transforming the eigenvectors                 ... done (   0.0 sec)
Now organizing SCF variables                       ... done
                      ------------------
                      INITIAL GUESS DONE (   0.4 sec)
                      ------------------
             **** ENERGY FILE WAS UPDATED (5.en.tmp) ****
Finished Guess after   0.4 sec
Maximum memory used throughout the entire GUESS-calculation: 16.0 MB

-------------------------------------------------------------------------------------------
                                      ORCA LEAN-SCF
                              memory conserving SCF solver
-------------------------------------------------------------------------------------------

----------------------------------------D-I-I-S--------------------------------------------
Iteration    Energy (Eh)           Delta-E    RMSDP     MaxDP     DIISErr   Damp  Time(sec)
-------------------------------------------------------------------------------------------
               ***  Starting incremental Fock matrix formation  ***
    1    -554.0359847892214020     0.00e+00  3.05e-03  1.09e-01  2.57e-01  0.700   0.7
    2    -554.2080026368989820    -1.72e-01  2.02e-03  5.83e-02  9.68e-02  0.700   0.7
                               ***Turning on AO-DIIS***
    3    -554.2648338326068824    -5.68e-02  7.96e-04  1.69e-02  2.80e-02  0.700   0.7
    4    -554.3010429469700284    -3.62e-02  1.14e-03  2.19e-02  1.29e-02  0.000   0.7
    5    -554.3830931874347243    -8.21e-02  3.46e-04  9.14e-03  7.74e-03  0.000   0.7
    6    -554.3838382456201543    -7.45e-04  1.28e-04  3.01e-03  3.34e-03  0.000   0.7
                              *** Initializing SOSCF ***
---------------------------------------S-O-S-C-F--------------------------------------
Iteration    Energy (Eh)           Delta-E    RMSDP     MaxDP     MaxGrad    Time(sec)
--------------------------------------------------------------------------------------
    7    -554.3838937057464591    -5.55e-05  4.53e-05  1.16e-03  1.51e-03     0.6
               *** Restarting incremental Fock matrix formation ***
    8    -554.3839024626413448    -8.76e-06  2.85e-05  5.92e-04  9.37e-05     0.7
    9    -554.3839019088889017     5.54e-07  1.38e-05  6.32e-04  2.90e-04     0.6
   10    -554.3839032233024682    -1.31e-06  1.25e-05  4.33e-04  1.51e-04     0.6
   11    -554.3839029420787483     2.81e-07  7.06e-06  2.57e-04  1.58e-04     0.6
   12    -554.3839034125001035    -4.70e-07  2.78e-06  6.61e-05  8.94e-06     0.6
   13    -554.3839034030627317     9.44e-09  1.33e-06  3.49e-05  1.66e-05     0.6
                 **** Energy Check signals convergence ****

               *****************************************************
               *                     SUCCESS                       *
               *           SCF CONVERGED AFTER  13 CYCLES          *
               *****************************************************

             **** ENERGY FILE WAS UPDATED (5.en.tmp) ****

----------------
TOTAL SCF ENERGY
----------------

Total Energy       :       -554.38390341539161 Eh          -15085.55295 eV

Components:
Nuclear Repulsion  :        673.98118230957130 Eh           18339.96036 eV
Electronic Energy  :      -1228.36508572496268 Eh          -33425.51330 eV
One Electron Energy:      -2090.35511608140041 Eh          -56881.45451 eV
Two Electron Energy:        861.99003035643761 Eh           23455.94120 eV

Virial components:
Potential Energy   :      -1106.05044716473776 Eh          -30097.16278 eV
Kinetic Energy     :        551.66654374934615 Eh           15011.60983 eV
Virial Ratio       :          2.00492572858883

DFT components:
N(Alpha)           :       43.999901072348 electrons
N(Beta)            :       43.999901072348 electrons
N(Total)           :       87.999802144696 electrons
E(X)               :      -73.002766299175 Eh       
E(C)               :       -3.853336801203 Eh       
E(XC)              :      -76.856103100379 Eh       

---------------
SCF CONVERGENCE
---------------

  Last Energy change         ...   -9.4374e-09  Tolerance :   1.0000e-08
  Last MAX-Density change    ...    3.4917e-05  Tolerance :   1.0000e-07
  Last RMS-Density change    ...    1.3342e-06  Tolerance :   5.0000e-09
  Last DIIS Error            ...    1.5095e-03  Tolerance :   5.0000e-07
  Last Orbital Gradient      ...    1.6561e-05  Tolerance :   1.0000e-05
  Last Orbital Rotation      ...    3.3910e-05  Tolerance :   1.0000e-05


----------------
ORBITAL ENERGIES
----------------

  NO   OCC          E(Eh)            E(eV) 
   0   2.0000     -18.816191      -512.0146 
   1   2.0000     -18.755915      -510.3744 
   2   2.0000     -13.981230      -380.4486 
   3   2.0000     -10.032275      -272.9921 
   4   2.0000      -9.948547      -270.7137 
   5   2.0000      -9.917970      -269.8817 
   6   2.0000      -9.915348      -269.8103 
   7   2.0000      -9.911007      -269.6922 
   8   2.0000      -9.910821      -269.6872 
   9   2.0000      -9.909898      -269.6620 
  10   2.0000      -9.909245      -269.6443 
  11   2.0000      -9.909191      -269.6428 
  12   2.0000      -1.023596       -27.8535 
  13   2.0000      -0.934910       -25.4402 
  14   2.0000      -0.816460       -22.2170 
  15   2.0000      -0.784746       -21.3540 
  16   2.0000      -0.710756       -19.3407 
  17   2.0000      -0.680069       -18.5056 
  18   2.0000      -0.663099       -18.0438 
  19   2.0000      -0.607688       -16.5360 
  20   2.0000      -0.550087       -14.9686 
  21   2.0000      -0.541342       -14.7307 
  22   2.0000      -0.521802       -14.1990 
  23   2.0000      -0.474895       -12.9225 
  24   2.0000      -0.458883       -12.4868 
  25   2.0000      -0.425467       -11.5775 
  26   2.0000      -0.416781       -11.3412 
  27   2.0000      -0.414445       -11.2776 
  28   2.0000      -0.400603       -10.9010 
  29   2.0000      -0.386151       -10.5077 
  30   2.0000      -0.376158       -10.2358 
  31   2.0000      -0.371625       -10.1124 
  32   2.0000      -0.367872       -10.0103 
  33   2.0000      -0.358376        -9.7519 
  34   2.0000      -0.332070        -9.0361 
  35   2.0000      -0.320510        -8.7215 
  36   2.0000      -0.317975        -8.6525 
  37   2.0000      -0.296573        -8.0702 
  38   2.0000      -0.295313        -8.0359 
  39   2.0000      -0.274742        -7.4761 
  40   2.0000      -0.229648        -6.2490 
  41   2.0000      -0.224473        -6.1082 
  42   2.0000      -0.217275        -5.9123 
  43   2.0000      -0.185666        -5.0522 
  44   0.0000      -0.033827        -0.9205 
  45   0.0000      -0.028308        -0.7703 
  46   0.0000      -0.010367        -0.2821 
  47   0.0000       0.052212         1.4208 
  48   0.0000       0.068809         1.8724 
  49   0.0000       0.090786         2.4704 
  50   0.0000       0.098976         2.6933 
  51   0.0000       0.105634         2.8745 
  52   0.0000       0.124068         3.3761 
  53   0.0000       0.132277         3.5994 
  54   0.0000       0.142371         3.8741 
*Only the first 10 virtual orbitals were printed.

                    ********************************
                    * MULLIKEN POPULATION ANALYSIS *
                    ********************************

-----------------------
MULLIKEN ATOMIC CHARGES
-----------------------
   0 C :   -0.087945
   1 C :   -0.089671
   2 C :   -0.113413
   3 H :    0.091928
   4 H :    0.087511
   5 C :   -0.135972
   6 C :   -0.262599
   7 H :    0.091848
   8 C :    0.105903
   9 H :    0.090964
  10 C :   -0.089988
  11 H :    0.086159
  12 C :   -0.022110
  13 H :    0.117754
  14 H :    0.115730
  15 C :    0.522321
  16 H :    0.319279
  17 N :   -0.572756
  18 O :   -0.457195
  19 H :    0.248045
  20 O :   -0.418718
  21 H :    0.128773
  22 H :    0.244153
Sum of atomic charges:    0.0000000

--------------------------------
MULLIKEN REDUCED ORBITAL CHARGES
--------------------------------
  0 C s       :     3.176653  s :     3.176653
      pz      :     0.936519  p :     2.876640
      px      :     0.951130
      py      :     0.988990
      dz2     :     0.008775  d :     0.034653
      dxz     :     0.012359
      dyz     :     0.005193
      dx2y2   :     0.005045
      dxy     :     0.003281

  1 C s       :     3.180219  s :     3.180219
      pz      :     0.964786  p :     2.874586
      px      :     0.926032
      py      :     0.983769
      dz2     :     0.010476  d :     0.034865
      dxz     :     0.009894
      dyz     :     0.002443
      dx2y2   :     0.005526
      dxy     :     0.006526

  2 C s       :     3.182858  s :     3.182858
      pz      :     0.958613  p :     2.895946
      px      :     0.939515
      py      :     0.997818
      dz2     :     0.010497  d :     0.034609
      dxz     :     0.009836
      dyz     :     0.002414
      dx2y2   :     0.005555
      dxy     :     0.006307

  3 H s       :     0.895630  s :     0.895630
      pz      :     0.003436  p :     0.012442
      px      :     0.005908
      py      :     0.003098

  4 H s       :     0.900015  s :     0.900015
      pz      :     0.007151  p :     0.012474
      px      :     0.002188
      py      :     0.003135

  5 C s       :     3.192281  s :     3.192281
      pz      :     0.948009  p :     2.908962
      px      :     0.951471
      py      :     1.009482
      dz2     :     0.008958  d :     0.034729
      dxz     :     0.012173
      dyz     :     0.005325
      dx2y2   :     0.004733
      dxy     :     0.003540

  6 C s       :     3.237397  s :     3.237397
      pz      :     1.042837  p :     2.988817
      px      :     0.997236
      py      :     0.948744
      dz2     :     0.006495  d :     0.036386
      dxz     :     0.007585
      dyz     :     0.006962
      dx2y2   :     0.007201
      dxy     :     0.008143

  7 H s       :     0.895710  s :     0.895710
      pz      :     0.007163  p :     0.012442
      px      :     0.002213
      py      :     0.003065

  8 C s       :     3.138249  s :     3.138249
      pz      :     0.878872  p :     2.714022
      px      :     0.883843
      py      :     0.951307
      dz2     :     0.010754  d :     0.041826
      dxz     :     0.012912
      dyz     :     0.006367
      dx2y2   :     0.005807
      dxy     :     0.005987

  9 H s       :     0.896571  s :     0.896571
      pz      :     0.003466  p :     0.012465
      px      :     0.005968
      py      :     0.003031

 10 C s       :     3.181192  s :     3.181192
      pz      :     0.931597  p :     2.873895
      px      :     0.959054
      py      :     0.983243
      dz2     :     0.008782  d :     0.034901
      dxz     :     0.012339
      dyz     :     0.005454
      dx2y2   :     0.004734
      dxy     :     0.003592

 11 H s       :     0.901354  s :     0.901354
      pz      :     0.003358  p :     0.012487
      px      :     0.005863
      py      :     0.003266

 12 C s       :     3.190885  s :     3.190885
      pz      :     0.884592  p :     2.773518
      px      :     0.973204
      py      :     0.915723
      dz2     :     0.011164  d :     0.057707
      dxz     :     0.013349
      dyz     :     0.013695
      dx2y2   :     0.011281
      dxy     :     0.008217

 13 H s       :     0.870667  s :     0.870667
      pz      :     0.005825  p :     0.011579
      px      :     0.002450
      py      :     0.003304

 14 H s       :     0.872870  s :     0.872870
      pz      :     0.003396  p :     0.011400
      px      :     0.004503
      py      :     0.003500

 15 C s       :     2.974218  s :     2.974218
      pz      :     0.727270  p :     2.377640
      px      :     0.864929
      py      :     0.785441
      dz2     :     0.037842  d :     0.125820
      dxz     :     0.038264
      dyz     :     0.017150
      dx2y2   :     0.015484
      dxy     :     0.017080

 16 H s       :     0.642865  s :     0.642865
      pz      :     0.010430  p :     0.037856
      px      :     0.018043
      py      :     0.009383

 17 N s       :     3.587457  s :     3.587457
      pz      :     1.101289  p :     3.957530
      px      :     1.157875
      py      :     1.698365
      dz2     :     0.002780  d :     0.027769
      dxz     :     0.009279
      dyz     :     0.007265
      dx2y2   :     0.003429
      dxy     :     0.005015

 18 O s       :     3.826644  s :     3.826644
      pz      :     1.296463  p :     4.607585
      px      :     1.542414
      py      :     1.768708
      dz2     :     0.005705  d :     0.022966
      dxz     :     0.007425
      dyz     :     0.003945
      dx2y2   :     0.004071
      dxy     :     0.001821

 19 H s       :     0.727633  s :     0.727633
      pz      :     0.005422  p :     0.024322
      px      :     0.010884
      py      :     0.008016

 20 O s       :     3.860481  s :     3.860481
      pz      :     1.699910  p :     4.529905
      px      :     1.409504
      py      :     1.420491
      dz2     :     0.003742  d :     0.028332
      dxz     :     0.007505
      dyz     :     0.001886
      dx2y2   :     0.006348
      dxy     :     0.008851

 21 H s       :     0.860409  s :     0.860409
      pz      :     0.003159  p :     0.010818
      px      :     0.004333
      py      :     0.003326

 22 H s       :     0.731335  s :     0.731335
      pz      :     0.007557  p :     0.024512
      px      :     0.008897
      py      :     0.008059



                     *******************************
                     * LOEWDIN POPULATION ANALYSIS *
                     *******************************

----------------------
LOEWDIN ATOMIC CHARGES
----------------------
   0 C :   -0.074321
   1 C :   -0.070102
   2 C :   -0.074875
   3 H :    0.074140
   4 H :    0.072083
   5 C :   -0.087173
   6 C :   -0.125432
   7 H :    0.074041
   8 C :   -0.018682
   9 H :    0.073730
  10 C :   -0.067739
  11 H :    0.070650
  12 C :   -0.038323
  13 H :    0.078685
  14 H :    0.076690
  15 C :    0.123031
  16 H :    0.183479
  17 N :   -0.250775
  18 O :   -0.135782
  19 H :    0.127496
  20 O :   -0.216227
  21 H :    0.079902
  22 H :    0.125504

-------------------------------
LOEWDIN REDUCED ORBITAL CHARGES
-------------------------------
  0 C s       :     2.895997  s :     2.895997
      pz      :     1.058417  p :     3.092214
      px      :     1.053417
      py      :     0.980380
      dz2     :     0.024648  d :     0.086110
      dxz     :     0.032401
      dyz     :     0.011563
      dx2y2   :     0.010790
      dxy     :     0.006707

  1 C s       :     2.896506  s :     2.896506
      pz      :     1.050470  p :     3.086889
      px      :     1.063646
      py      :     0.972773
      dz2     :     0.024338  d :     0.086707
      dxz     :     0.027807
      dyz     :     0.004347
      dx2y2   :     0.015393
      dxy     :     0.014822

  2 C s       :     2.895089  s :     2.895089
      pz      :     1.049149  p :     3.093812
      px      :     1.055643
      py      :     0.989020
      dz2     :     0.024552  d :     0.085974
      dxz     :     0.027599
      dyz     :     0.004294
      dx2y2   :     0.015572
      dxy     :     0.013958

  3 H s       :     0.885146  s :     0.885146
      pz      :     0.011167  p :     0.040714
      px      :     0.021002
      py      :     0.008545

  4 H s       :     0.886813  s :     0.886813
      pz      :     0.026115  p :     0.041103
      px      :     0.006319
      py      :     0.008669

  5 C s       :     2.897378  s :     2.897378
      pz      :     1.051069  p :     3.103597
      px      :     1.054272
      py      :     0.998256
      dz2     :     0.024816  d :     0.086198
      dxz     :     0.032441
      dyz     :     0.011433
      dx2y2   :     0.010447
      dxy     :     0.007062

  6 C s       :     2.905556  s :     2.905556
      pz      :     1.071710  p :     3.138607
      px      :     1.040172
      py      :     1.026725
      dz2     :     0.014125  d :     0.081269
      dxz     :     0.017511
      dyz     :     0.014261
      dx2y2   :     0.017658
      dxy     :     0.017714

  7 H s       :     0.885208  s :     0.885208
      pz      :     0.026003  p :     0.040751
      px      :     0.006309
      py      :     0.008439

  8 C s       :     2.874016  s :     2.874016
      pz      :     1.055864  p :     3.039767
      px      :     1.032223
      py      :     0.951679
      dz2     :     0.028981  d :     0.104900
      dxz     :     0.036135
      dyz     :     0.013723
      dx2y2   :     0.013829
      dxy     :     0.012232

  9 H s       :     0.885436  s :     0.885436
      pz      :     0.011356  p :     0.040835
      px      :     0.021280
      py      :     0.008199

 10 C s       :     2.896188  s :     2.896188
      pz      :     1.059519  p :     3.084796
      px      :     1.054479
      py      :     0.970798
      dz2     :     0.024697  d :     0.086755
      dxz     :     0.032531
      dyz     :     0.011984
      dx2y2   :     0.010347
      dxy     :     0.007197

 11 H s       :     0.888141  s :     0.888141
      pz      :     0.011174  p :     0.041209
      px      :     0.020976
      py      :     0.009059

 12 C s       :     2.884170  s :     2.884170
      pz      :     0.980269  p :     3.023219
      px      :     1.032418
      py      :     1.010532
      dz2     :     0.025957  d :     0.130934
      dxz     :     0.030548
      dyz     :     0.029485
      dx2y2   :     0.027012
      dxy     :     0.017932

 13 H s       :     0.880776  s :     0.880776
      pz      :     0.022283  p :     0.040540
      px      :     0.007247
      py      :     0.011010

 14 H s       :     0.883293  s :     0.883293
      pz      :     0.011736  p :     0.040017
      px      :     0.016181
      py      :     0.012100

 15 C s       :     2.847073  s :     2.847073
      pz      :     0.906228  p :     2.730835
      px      :     1.039158
      py      :     0.785450
      dz2     :     0.093950  d :     0.299060
      dxz     :     0.095474
      dyz     :     0.036401
      dx2y2   :     0.038437
      dxy     :     0.034799

 16 H s       :     0.701132  s :     0.701132
      pz      :     0.030301  p :     0.115390
      px      :     0.058513
      py      :     0.026575

 17 N s       :     3.185282  s :     3.185282
      pz      :     1.153580  p :     4.007971
      px      :     1.174261
      py      :     1.680130
      dz2     :     0.008815  d :     0.057522
      dxz     :     0.021093
      dyz     :     0.014013
      dx2y2   :     0.006980
      dxy     :     0.006620

 18 O s       :     3.469927  s :     3.469927
      pz      :     1.338902  p :     4.615009
      px      :     1.545541
      py      :     1.730566
      dz2     :     0.018109  d :     0.050845
      dxz     :     0.017642
      dyz     :     0.007447
      dx2y2   :     0.006213
      dxy     :     0.001435

 19 H s       :     0.791151  s :     0.791151
      pz      :     0.016681  p :     0.081352
      px      :     0.038254
      py      :     0.026417

 20 O s       :     3.552316  s :     3.552316
      pz      :     1.696815  p :     4.605492
      px      :     1.501940
      py      :     1.406736
      dz2     :     0.008328  d :     0.058419
      dxz     :     0.017768
      dyz     :     0.002755
      dx2y2   :     0.017034
      dxy     :     0.012535

 21 H s       :     0.880414  s :     0.880414
      pz      :     0.011516  p :     0.039685
      px      :     0.016482
      py      :     0.011686

 22 H s       :     0.793297  s :     0.793297
      pz      :     0.025988  p :     0.081198
      px      :     0.030810
      py      :     0.024401



                      *****************************
                      * MAYER POPULATION ANALYSIS *
                      *****************************

  NA   - Mulliken gross atomic population
  ZA   - Total nuclear charge
  QA   - Mulliken gross atomic charge
  VA   - Mayer's total valence
  BVA  - Mayer's bonded valence
  FA   - Mayer's free valence

  ATOM       NA         ZA         QA         VA         BVA        FA
  0 C      6.0879     6.0000    -0.0879     3.9474     3.9474     0.0000
  1 C      6.0897     6.0000    -0.0897     3.9423     3.9423     0.0000
  2 C      6.1134     6.0000    -0.1134     3.9377     3.9377    -0.0000
  3 H      0.9081     1.0000     0.0919     0.9561     0.9561    -0.0000
  4 H      0.9125     1.0000     0.0875     0.9592     0.9592     0.0000
  5 C      6.1360     6.0000    -0.1360     3.9493     3.9493     0.0000
  6 C      6.2626     6.0000    -0.2626     3.8498     3.8498    -0.0000
  7 H      0.9082     1.0000     0.0918     0.9560     0.9560     0.0000
  8 C      5.8941     6.0000     0.1059     3.9743     3.9743     0.0000
  9 H      0.9090     1.0000     0.0910     0.9562     0.9562     0.0000
 10 C      6.0900     6.0000    -0.0900     3.9451     3.9451     0.0000
 11 H      0.9138     1.0000     0.0862     0.9625     0.9625     0.0000
 12 C      6.0221     6.0000    -0.0221     3.8595     3.8595     0.0000
 13 H      0.8822     1.0000     0.1178     0.9546     0.9546     0.0000
 14 H      0.8843     1.0000     0.1157     0.9590     0.9590    -0.0000
 15 C      5.4777     6.0000     0.5223     3.9618     3.9618    -0.0000
 16 H      0.6807     1.0000     0.3193     0.9163     0.9163    -0.0000
 17 N      7.5728     7.0000    -0.5728     2.8796     2.8796     0.0000
 18 O      8.4572     8.0000    -0.4572     2.0501     2.0501     0.0000
 19 H      0.7520     1.0000     0.2480     0.9339     0.9339    -0.0000
 20 O      8.4187     8.0000    -0.4187     2.1160     2.1160    -0.0000
 21 H      0.8712     1.0000     0.1288     0.9500     0.9500    -0.0000
 22 H      0.7558     1.0000     0.2442     0.9357     0.9357     0.0000

  Mayer bond orders larger than 0.100000
B(  0-C ,  1-C ) :   1.4525 B(  0-C ,  9-H ) :   0.9393 B(  0-C , 10-C ) :   1.4380 
B(  1-C ,  5-C ) :   1.4233 B(  1-C ,  7-H ) :   0.9376 B(  2-C ,  4-H ) :   0.9341 
B(  2-C ,  8-C ) :   1.4228 B(  2-C , 10-C ) :   1.4415 B(  3-H , 10-C ) :   0.9378 
B(  5-C ,  8-C ) :   1.4208 B(  5-C , 11-H ) :   0.9339 B(  6-C ,  8-C ) :   1.0001 
B(  6-C , 12-C ) :   0.9267 B(  6-C , 13-H ) :   0.9254 B(  6-C , 14-H ) :   0.9353 
B( 12-C , 15-C ) :   0.9158 B( 12-C , 17-N ) :   1.0536 B( 12-C , 21-H ) :   0.9221 
B( 15-C , 18-O ) :   1.0959 B( 15-C , 20-O ) :   1.9129 B( 16-H , 18-O ) :   0.8520 
B( 17-N , 19-H ) :   0.8890 B( 17-N , 22-H ) :   0.8910 

-------
TIMINGS
-------

Total SCF time: 0 days 0 hours 0 min 9 sec 

Total time                  ....       9.124 sec
Sum of individual times     ....       8.501 sec  ( 93.2%)

SCF preparation             ....       0.031 sec  (  0.3%)
Fock matrix formation       ....       8.360 sec  ( 91.6%)
  Startup                   ....       0.001 sec  (  0.0% of F)
  Split-RI-J                ....       3.340 sec  ( 40.0% of F)
  XC integration            ....       5.558 sec  ( 66.5% of F)
    Basis function eval.    ....       1.959 sec  ( 35.2% of XC)
    Density eval.           ....       1.250 sec  ( 22.5% of XC)
    XC-Functional eval.     ....       0.918 sec  ( 16.5% of XC)
    XC-Potential eval.      ....       1.297 sec  ( 23.3% of XC)
Diagonalization             ....       0.000 sec  (  0.0%)
Density matrix formation    ....       0.006 sec  (  0.1%)
Total Energy calculation    ....       0.001 sec  (  0.0%)
Population analysis         ....       0.024 sec  (  0.3%)
Orbital Transformation      ....       0.011 sec  (  0.1%)
Orbital Orthonormalization  ....       0.000 sec  (  0.0%)
DIIS solution               ....       0.045 sec  (  0.5%)
SOSCF solution              ....       0.024 sec  (  0.3%)
Finished LeanSCF after   9.1 sec

Maximum memory used throughout the entire LEANSCF-calculation: 25.0 MB



-------------------------------------------------------------------------------
                          DFT DISPERSION CORRECTION                            
-------------------------------------------------------------------------------
Active option DFTDOPT                   ...         2   
Final C6-coefficient scaling factor     ...     1.250
Final VDW-radii scaling factor          ...     1.100
Damping factor alpha                    ...    20.000
-------------------------   ----------------
Dispersion correction           -0.031753917
-------------------------   ----------------


-------------------------   --------------------
FINAL SINGLE POINT ENERGY      -554.415657332214
-------------------------   --------------------

------------------------------------------------------------------------------
                         ORCA SCF GRADIENT CALCULATION
------------------------------------------------------------------------------

Nuc. rep. gradient        (SHARK) ... done (  0.0 sec)
HCore & Overlap gradient  (SHARK) ... done (  0.2 sec)
Split-RIJ-J gradient      (SHARK) ... done (  0.9 sec)
XC gradient                       ... done (  3.3 sec)
Dispersion correction             ... done (  0.0 sec)

-------------------
DISPERSION GRADIENT
-------------------

   1   C   :    0.000740049   -0.000070319    0.000451814
   2   C   :   -0.000296994   -0.000007082    0.000805791
   3   C   :   -0.001420339   -0.000545402   -0.001161428
   4   H   :   -0.000019629   -0.000006773   -0.000020809
   5   H   :   -0.000720117   -0.000088470    0.000022595
   6   C   :   -0.001843602   -0.000595593   -0.000402095
   7   C   :   -0.000191649    0.000350695    0.000264237
   8   H   :   -0.000037824   -0.000008518   -0.000008680
   9   C   :   -0.000576285   -0.000581754   -0.000266165
  10   H   :    0.000013656   -0.000002910    0.000010718
  11   C   :    0.000576092   -0.000223465   -0.000579612
  12   H   :   -0.000426210   -0.000426488   -0.000674686
  13   C   :    0.001049557   -0.000513480   -0.000009241
  14   H   :    0.000473159   -0.000600018   -0.000743060
  15   H   :   -0.000471936   -0.000632752    0.000980179
  16   C   :   -0.000087979    0.000597439   -0.000141717
  17   H   :    0.000278467    0.000016106   -0.000285677
  18   N   :    0.000604990    0.000491376    0.000851030
  19   O   :    0.000505648    0.000368060    0.000336933
  20   H   :    0.000247312    0.000493116    0.000189502
  21   O   :   -0.000047548    0.000469447    0.000483861
  22   H   :    0.000955881    0.000548582    0.000322246
  23   H   :    0.000695302    0.000968202   -0.000425734

Difference to translation invariance:
           :   -0.0000000000    0.0000000000   -0.0000000000

Difference to rotation invariance:
           :   -0.0000000000    0.0000000000   -0.0000000000

Norm of the Dispersion gradient    ...    0.0047216301
RMS gradient                       ...    0.0005684175
MAX gradient                       ...    0.0018436018

------------------
CARTESIAN GRADIENT
------------------

   1   C   :    0.009981937   -0.000269734    0.006235609
   2   C   :    0.000564151    0.000917723    0.011616230
   3   C   :    0.000153094   -0.001207496   -0.009109350
   4   H   :    0.006635342   -0.001162755   -0.003850340
   5   H   :   -0.000457423   -0.000991368   -0.007896544
   6   C   :   -0.008621791    0.001428875    0.005389314
   7   C   :    0.003454151   -0.001375016   -0.000733892
   8   H   :    0.000108021    0.001147822    0.007586832
   9   C   :   -0.010204368    0.004107971   -0.006546091
  10   H   :    0.006733759   -0.000118911    0.003849388
  11   C   :    0.009727107   -0.002318681   -0.005919836
  12   H   :   -0.006661162    0.001245213    0.002632428
  13   C   :    0.000243526    0.000436242    0.000535744
  14   H   :    0.000468817    0.003991101   -0.005437527
  15   H   :   -0.004496748    0.002066825    0.001601826
  16   C   :    0.011108697   -0.005312304   -0.001709315
  17   H   :   -0.005210627    0.001365358    0.003896818
  18   N   :   -0.003076848   -0.010231733    0.003126987
  19   O   :    0.016858032   -0.001631873   -0.023434079
  20   H   :   -0.002473017    0.002484316    0.002140800
  21   O   :   -0.030646908    0.003443461    0.016821194
  22   H   :    0.003184472    0.000486576   -0.002686819
  23   H   :    0.002627787    0.001498387    0.001890624

Difference to translation invariance:
           :   -0.0000000000   -0.0000000000   -0.0000000000

Difference to rotation invariance:
           :    0.0005741711   -0.0002931212   -0.0000259858

Norm of the Cartesian gradient     ...    0.0598893472
RMS gradient                       ...    0.0072098302
MAX gradient                       ...    0.0306469075

-------
TIMINGS
-------

Total SCF gradient time     ....        4.428 sec

Densities                   ....       0.000 sec  (  0.0%)
One electron gradient       ....       0.181 sec  (  4.1%)
RI-J Coulomb gradient       ....       0.937 sec  ( 21.1%)
XC gradient                 ....       3.310 sec  ( 74.7%)

Maximum memory used throughout the entire SCFGRAD-calculation: 31.8 MB
------------------------------------------------------------------------------
                         ORCA GEOMETRY RELAXATION STEP
------------------------------------------------------------------------------

Reading the OPT-File                    .... done
Getting information on internals        .... done
Copying old internal coords+grads       .... done
Making the new internal coordinates     .... (2022 redundants) done
Validating the new internal coordinates .... (2022 redundants) done
Calculating the B-matrix                .... done
Calculating the G,G- and P matrices     .... done
Transforming gradient to internals      .... done
Projecting the internal gradient        .... done
Number of atoms                         ....  23
Number of internal coordinates          .... 108
Current Energy                          ....  -554.415657332 Eh
Current gradient norm                   ....     0.059889347 Eh/bohr
Maximum allowed component of the step   ....  0.300
Current trust radius                    ....  0.300
Evaluating the initial hessian          ....  (Almloef) done
Projecting the Hessian                  .... done
Forming the augmented Hessian           .... done
Diagonalizing the augmented Hessian     .... done
Last element of RFO vector              ....  0.990062207
Lowest eigenvalues of augmented Hessian:
 -0.007877765  0.010000294  0.011531546  0.012961295  0.016462730
Length of the computed step             ....  0.142041686
The final length of the internal step   ....  0.142041686
Converting the step to Cartesian space:
 Initial RMS(Int)=    0.0136679676
Transforming coordinates:
 Iter   0:  RMS(Cart)=    0.0333767471 RMS(Int)=    0.6045572526
done
Storing new coordinates                 .... done

                                .--------------------.
          ----------------------|Geometry convergence|-------------------------
          Item                value                   Tolerance       Converged
          ---------------------------------------------------------------------
          RMS gradient        0.0066794885            0.0001000000      NO
          MAX gradient        0.0347914914            0.0003000000      NO
          RMS step            0.0136679676            0.0020000000      NO
          MAX step            0.0361710748            0.0040000000      NO
          -------------------------------------------------------------------------
          ........................................................
          Max(Bonds)      0.0164      Max(Angles)    1.66
          Max(Dihed)        2.07      Max(Improp)    0.00
          ---------------------------------------------------------------------

The optimization has not yet converged - more geometry cycles are needed


    ---------------------------------------------------------------------------
                         Redundant Internal Coordinates
                            (Angstroem and degrees)

        Definition                    Value    dE/dq     Step     New-Value
    ----------------------------------------------------------------------------
     1. B(C   1,C   0)                1.3836 -0.018856  0.0154    1.3991   
     2. B(H   4,C   2)                1.0807 -0.007959  0.0111    1.0917   
     3. B(C   5,C   1)                1.3845 -0.019814  0.0162    1.4008   
     4. B(H   7,C   1)                1.0802 -0.007675  0.0107    1.0909   
     5. B(C   8,C   6)                1.4991 -0.008917  0.0111    1.5101   
     6. B(C   8,C   2)                1.3902 -0.018383  0.0153    1.4055   
     7. B(C   8,C   5)                1.3896 -0.018329  0.0153    1.4049   
     8. B(H   9,C   0)                1.0798 -0.007757  0.0108    1.0906   
     9. B(C  10,H   3)                1.0801 -0.007757  0.0108    1.0909   
    10. B(C  10,C   2)                1.3826 -0.019213  0.0156    1.3982   
    11. B(C  10,C   0)                1.3853 -0.019276  0.0159    1.4011   
    12. B(H  11,C   5)                1.0815 -0.007196  0.0100    1.0915   
    13. B(C  12,C   6)                1.5602 -0.009249  0.0143    1.5745   
    14. B(H  13,C   6)                1.0912 -0.006621  0.0096    1.1008   
    15. B(H  14,C   6)                1.0925 -0.005008  0.0073    1.0998   
    16. B(C  15,C  12)                1.5149 -0.008024  0.0112    1.5260   
    17. B(N  17,C  12)                1.4432 -0.008980  0.0106    1.4538   
    18. B(O  18,H  16)                0.9711 -0.002650  0.0028    0.9739   
    19. B(O  18,C  15)                1.3365 -0.021232  0.0163    1.3528   
    20. B(H  19,N  17)                1.0152 -0.003965  0.0047    1.0199   
    21. B(O  20,H  19)                2.4108 -0.000993  0.0134    2.4241   
    22. B(O  20,C  15)                1.2010 -0.034791  0.0164    1.2174   
    23. B(H  21,C  12)                1.0955 -0.003378  0.0050    1.1004   
    24. B(H  22,N  17)                1.0142 -0.003398  0.0041    1.0184   
    25. A(C   1,C   0,C  10)          119.72  0.000502   -0.06    119.66   
    26. A(C   1,C   0,H   9)          120.14 -0.000281    0.03    120.17   
    27. A(H   9,C   0,C  10)          120.14 -0.000221    0.02    120.17   
    28. A(C   0,C   1,C   5)          120.09  0.000191   -0.02    120.07   
    29. A(C   0,C   1,H   7)          120.12 -0.000024   -0.00    120.12   
    30. A(C   5,C   1,H   7)          119.79 -0.000167    0.02    119.81   
    31. A(C   8,C   2,C  10)          120.60 -0.000911    0.12    120.72   
    32. A(H   4,C   2,C   8)          119.42  0.000870   -0.12    119.29   
    33. A(H   4,C   2,C  10)          119.98  0.000041    0.01    119.99   
    34. A(C   1,C   5,C   8)          120.61 -0.000865    0.11    120.73   
    35. A(C   8,C   5,H  11)          119.69  0.001496   -0.22    119.47   
    36. A(C   1,C   5,H  11)          119.69 -0.000633    0.11    119.80   
    37. A(C  12,C   6,H  14)          108.44  0.002340   -0.50    107.94   
    38. A(H  13,C   6,H  14)          108.92  0.000307   -0.41    108.52   
    39. A(C   8,C   6,H  14)          110.60  0.000050    0.02    110.62   
    40. A(C  12,C   6,H  13)          108.42 -0.000112    0.21    108.62   
    41. A(C   8,C   6,H  13)          110.42  0.001502   -0.13    110.30   
    42. A(C   8,C   6,C  12)          109.98 -0.004039    0.79    110.77   
    43. A(C   5,C   8,C   6)          120.78 -0.000342    0.04    120.82   
    44. A(C   2,C   8,C   6)          120.31 -0.000638    0.08    120.39   
    45. A(C   2,C   8,C   5)          118.84  0.001000   -0.15    118.69   
    46. A(C   0,C  10,H   3)          120.01 -0.000067    0.01    120.02   
    47. A(C   0,C  10,C   2)          120.14  0.000083   -0.01    120.13   
    48. A(C   2,C  10,H   3)          119.85 -0.000016   -0.00    119.85   
    49. A(C  15,C  12,N  17)          109.12  0.003076   -0.30    108.83   
    50. A(C   6,C  12,N  17)          114.80 -0.002064    0.49    115.30   
[...]

 18 O s       :     3.844507  s :     3.844507
      pz      :     1.308641  p :     4.597255
      px      :     1.519147
      py      :     1.769467
      dz2     :     0.006368  d :     0.023386
      dxz     :     0.006922
      dyz     :     0.003701
      dx2y2   :     0.004420
      dxy     :     0.001975

 19 H s       :     0.729460  s :     0.729460
      pz      :     0.005555  p :     0.023877
      px      :     0.010247
      py      :     0.008076

 20 O s       :     3.875013  s :     3.875013
      pz      :     1.696092  p :     4.521630
      px      :     1.404931
      py      :     1.420607
      dz2     :     0.003657  d :     0.027520
      dxz     :     0.007387
      dyz     :     0.001810
      dx2y2   :     0.006189
      dxy     :     0.008477

 21 H s       :     0.857862  s :     0.857862
      pz      :     0.003092  p :     0.010743
      px      :     0.004274
      py      :     0.003377

 22 H s       :     0.731220  s :     0.731220
      pz      :     0.007134  p :     0.024174
      px      :     0.009225
      py      :     0.007815



                     *******************************
                     * LOEWDIN POPULATION ANALYSIS *
                     *******************************

----------------------
LOEWDIN ATOMIC CHARGES
----------------------
   0 C :   -0.074828
   1 C :   -0.071797
   2 C :   -0.076299
   3 H :    0.076060
   4 H :    0.073815
   5 C :   -0.088453
   6 C :   -0.128598
   7 H :    0.076009
   8 C :   -0.019238
   9 H :    0.075653
  10 C :   -0.069432
  11 H :    0.071735
  12 C :   -0.037474
  13 H :    0.080325
  14 H :    0.076660
  15 C :    0.145337
  16 H :    0.184764
  17 N :   -0.253576
  18 O :   -0.154598
  19 H :    0.129099
  20 O :   -0.224613
  21 H :    0.082033
  22 H :    0.127414

-------------------------------
LOEWDIN REDUCED ORBITAL CHARGES
-------------------------------
  0 C s       :     2.908697  s :     2.908697
      pz      :     1.054048  p :     3.085112
      px      :     1.051330
      py      :     0.979734
      dz2     :     0.023415  d :     0.081020
      dxz     :     0.030782
      dyz     :     0.010531
      dx2y2   :     0.010079
      dxy     :     0.006212

  1 C s       :     2.908950  s :     2.908950
      pz      :     1.050074  p :     3.081289
      px      :     1.057387
      py      :     0.973828
      dz2     :     0.022933  d :     0.081558
      dxz     :     0.026684
      dyz     :     0.003881
      dx2y2   :     0.014450
      dxy     :     0.013610

  2 C s       :     2.907882  s :     2.907882
      pz      :     1.048513  p :     3.087391
      px      :     1.050125
      py      :     0.988753
      dz2     :     0.023259  d :     0.081025
      dxz     :     0.026399
      dyz     :     0.003791
      dx2y2   :     0.014659
      dxy     :     0.012918

  3 H s       :     0.884271  s :     0.884271
      pz      :     0.010605  p :     0.039669
      px      :     0.020978
      py      :     0.008086

  4 H s       :     0.886249  s :     0.886249
      pz      :     0.025889  p :     0.039936
      px      :     0.005863
      py      :     0.008183

  5 C s       :     2.910023  s :     2.910023
      pz      :     1.047134  p :     3.097297
      px      :     1.051561
      py      :     0.998602
      dz2     :     0.023998  d :     0.081133
      dxz     :     0.030376
      dyz     :     0.010666
      dx2y2   :     0.009881
      dxy     :     0.006211

  6 C s       :     2.915217  s :     2.915217
      pz      :     1.072297  p :     3.134961
      px      :     1.037812
      py      :     1.024852
      dz2     :     0.014556  d :     0.078420
      dxz     :     0.016551
      dyz     :     0.012631
      dx2y2   :     0.016430
      dxy     :     0.018252

  7 H s       :     0.884271  s :     0.884271
      pz      :     0.025841  p :     0.039720
      px      :     0.005875
      py      :     0.008004

  8 C s       :     2.885815  s :     2.885815
      pz      :     1.050845  p :     3.034231
      px      :     1.029720
      py      :     0.953666
      dz2     :     0.027889  d :     0.099192
      dxz     :     0.034331
      dyz     :     0.012505
      dx2y2   :     0.013065
      dxy     :     0.011401

  9 H s       :     0.884576  s :     0.884576
      pz      :     0.011195  p :     0.039771
      px      :     0.020726
      py      :     0.007850

 10 C s       :     2.908755  s :     2.908755
      pz      :     1.055153  p :     3.079108
      px      :     1.052171
      py      :     0.971784
      dz2     :     0.023719  d :     0.081568
      dxz     :     0.030676
      dyz     :     0.011128
      dx2y2   :     0.009743
      dxy     :     0.006302

 11 H s       :     0.888032  s :     0.888032
      pz      :     0.010490  p :     0.040233
      px      :     0.021120
      py      :     0.008623

 12 C s       :     2.894895  s :     2.894895
      pz      :     0.975218  p :     3.017366
      px      :     1.030402
      py      :     1.011746
      dz2     :     0.024983  d :     0.125213
      dxz     :     0.029471
      dyz     :     0.028108
      dx2y2   :     0.024799
      dxy     :     0.017853

 13 H s       :     0.880182  s :     0.880182
      pz      :     0.022466  p :     0.039493
      px      :     0.006881
      py      :     0.010146

 14 H s       :     0.884262  s :     0.884262
      pz      :     0.010823  p :     0.039077
      px      :     0.015827
      py      :     0.012427

 15 C s       :     2.862381  s :     2.862381
      pz      :     0.896610  p :     2.713375
      px      :     1.032173
      py      :     0.784592
      dz2     :     0.087117  d :     0.278907
      dxz     :     0.090363
      dyz     :     0.032402
      dx2y2   :     0.036461
      dxy     :     0.032563

 16 H s       :     0.701438  s :     0.701438
      pz      :     0.026931  p :     0.113798
      px      :     0.060370
      py      :     0.026496

 17 N s       :     3.208077  s :     3.208077
      pz      :     1.145721  p :     3.988609
      px      :     1.183057
      py      :     1.659831
      dz2     :     0.008249  d :     0.056891
      dxz     :     0.020198
      dyz     :     0.014548
      dx2y2   :     0.006065
      dxy     :     0.007831

 18 O s       :     3.496070  s :     3.496070
      pz      :     1.349720  p :     4.609894
      px      :     1.525436
      py      :     1.734738
      dz2     :     0.018129  d :     0.048634
      dxz     :     0.015334
      dyz     :     0.006731
      dx2y2   :     0.006785
      dxy     :     0.001655

 19 H s       :     0.791746  s :     0.791746
      pz      :     0.017156  p :     0.079155
      px      :     0.034814
      py      :     0.027185

 20 O s       :     3.567947  s :     3.567947
      pz      :     1.696489  p :     4.600783
      px      :     1.496455
      py      :     1.407838
      dz2     :     0.007796  d :     0.055884
      dxz     :     0.017141
      dyz     :     0.002588
      dx2y2   :     0.016470
      dxy     :     0.011888

 21 H s       :     0.878751  s :     0.878751
      pz      :     0.011249  p :     0.039215
      px      :     0.016166
      py      :     0.011800

 22 H s       :     0.793003  s :     0.793003
      pz      :     0.023910  p :     0.079583
      px      :     0.032367
      py      :     0.023305



                      *****************************
                      * MAYER POPULATION ANALYSIS *
                      *****************************

  NA   - Mulliken gross atomic population
  ZA   - Total nuclear charge
  QA   - Mulliken gross atomic charge
  VA   - Mayer's total valence
  BVA  - Mayer's bonded valence
  FA   - Mayer's free valence

  ATOM       NA         ZA         QA         VA         BVA        FA
  0 C      6.0915     6.0000    -0.0915     3.9368     3.9368    -0.0000
  1 C      6.0923     6.0000    -0.0923     3.9311     3.9311    -0.0000
  2 C      6.1172     6.0000    -0.1172     3.9307     3.9307    -0.0000
  3 H      0.9044     1.0000     0.0956     0.9571     0.9571    -0.0000
  4 H      0.9092     1.0000     0.0908     0.9598     0.9598    -0.0000
  5 C      6.1381     6.0000    -0.1381     3.9383     3.9383     0.0000
  6 C      6.2654     6.0000    -0.2654     3.8479     3.8479     0.0000
  7 H      0.9043     1.0000     0.0957     0.9570     0.9570    -0.0000
  8 C      5.8961     6.0000     0.1039     3.9517     3.9517    -0.0000
  9 H      0.9052     1.0000     0.0948     0.9573     0.9573     0.0000
 10 C      6.0921     6.0000    -0.0921     3.9333     3.9333    -0.0000
 11 H      0.9111     1.0000     0.0889     0.9637     0.9637     0.0000
 12 C      6.0289     6.0000    -0.0289     3.8547     3.8547     0.0000
 13 H      0.8803     1.0000     0.1197     0.9556     0.9556    -0.0000
 14 H      0.8846     1.0000     0.1154     0.9579     0.9579     0.0000
 15 C      5.4681     6.0000     0.5319     3.9275     3.9275     0.0000
 16 H      0.6797     1.0000     0.3203     0.9160     0.9160    -0.0000
 17 N      7.5647     7.0000    -0.5647     2.8802     2.8802    -0.0000
 18 O      8.4651     8.0000    -0.4651     2.0419     2.0419    -0.0000
 19 H      0.7533     1.0000     0.2467     0.9314     0.9314    -0.0000
 20 O      8.4242     8.0000    -0.4242     2.1079     2.1079     0.0000
 21 H      0.8686     1.0000     0.1314     0.9494     0.9494     0.0000
 22 H      0.7554     1.0000     0.2446     0.9348     0.9348    -0.0000

  Mayer bond orders larger than 0.100000
B(  0-C ,  1-C ) :   1.4445 B(  0-C ,  9-H ) :   0.9389 B(  0-C , 10-C ) :   1.4319 
B(  1-C ,  5-C ) :   1.4194 B(  1-C ,  7-H ) :   0.9376 B(  2-C ,  4-H ) :   0.9342 
B(  2-C ,  8-C ) :   1.4155 B(  2-C , 10-C ) :   1.4359 B(  3-H , 10-C ) :   0.9377 
B(  5-C ,  8-C ) :   1.4084 B(  5-C , 11-H ) :   0.9338 B(  6-C ,  8-C ) :   1.0000 
B(  6-C , 12-C ) :   0.9198 B(  6-C , 13-H ) :   0.9260 B(  6-C , 14-H ) :   0.9352 
B( 12-C , 15-C ) :   0.9169 B( 12-C , 17-N ) :   1.0521 B( 12-C , 21-H ) :   0.9212 
B( 15-C , 18-O ) :   1.0782 B( 15-C , 20-O ) :   1.8982 B( 16-H , 18-O ) :   0.8526 
B( 17-N , 19-H ) :   0.8901 B( 17-N , 22-H ) :   0.8887 

-------
TIMINGS
-------

Total SCF time: 0 days 0 hours 0 min 3 sec 

Total time                  ....       3.266 sec
Sum of individual times     ....       2.658 sec  ( 81.4%)

SCF preparation             ....       0.032 sec  (  1.0%)
Fock matrix formation       ....       2.574 sec  ( 78.8%)
  Startup                   ....       0.001 sec  (  0.0% of F)
  Split-RI-J                ....       1.173 sec  ( 45.6% of F)
  XC integration            ....       1.935 sec  ( 75.2% of F)
    XC Preparation          ....       0.000 sec  (  0.0% of XC)
    Basis function eval.    ....       0.682 sec  ( 35.3% of XC)
    Density eval.           ....       0.448 sec  ( 23.1% of XC)
    XC-Functional eval.     ....       0.322 sec  ( 16.7% of XC)
    XC-Potential eval.      ....       0.438 sec  ( 22.6% of XC)
Diagonalization             ....       0.000 sec  (  0.0%)
Density matrix formation    ....       0.002 sec  (  0.1%)
Total Energy calculation    ....       0.000 sec  (  0.0%)
Population analysis         ....       0.025 sec  (  0.8%)
Orbital Transformation      ....       0.006 sec  (  0.2%)
Orbital Orthonormalization  ....       0.000 sec  (  0.0%)
DIIS solution               ....       0.005 sec  (  0.2%)
SOSCF solution              ....       0.014 sec  (  0.4%)
Finished LeanSCF after   3.3 sec

Maximum memory used throughout the entire LEANSCF-calculation: 25.4 MB



-------------------------------------------------------------------------------
                          DFT DISPERSION CORRECTION                            
-------------------------------------------------------------------------------
Active option DFTDOPT                   ...         2   
Final C6-coefficient scaling factor     ...     1.250
Final VDW-radii scaling factor          ...     1.100
Damping factor alpha                    ...    20.000
-------------------------   ----------------
Dispersion correction           -0.031657204
-------------------------   ----------------


-------------------------   --------------------
FINAL SINGLE POINT ENERGY      -554.420855258713
-------------------------   --------------------

                                *** OPTIMIZATION RUN DONE ***


------------------------------------------------------------------------------
                              ORCA PROPERTY CALCULATIONS
------------------------------------------------------------------------------

GBWName                                 ... 5.gbw
Number of atoms                         ...     23
Number of basis functions               ...    223
Max core memory                         ...   4096 MB

Electric properties:
Dipole moment                           ... YES
Quadrupole moment                       ...  NO
Static polarizability (Dipole/Dipole)   ...  NO
Static polarizability (Dipole/Quad.)    ...  NO
Static polarizability (Quad./Quad.)     ...  NO
Static polarizability (Velocity)        ...  NO
Static hyperpolarizability              ...  NO

Atomic electric properties:
Dipole moment                           ...  NO
Quadrupole moment                       ...  NO
Static polarizability                   ...  NO

Choice of electric origin               ... Center of mass
Position of electric origin             ...    -6.169224     3.093245     0.660529

General magnetic properties:
Magnetizability                         ...  NO

EPR properties:
g-Tensor (aka g-matrix)                 ...  NO
Zero-Field splitting spin-orbit         ...  NO
Zero-field splitting spin-spin          ...  NO
Hyperfine couplings                     ...  NO (   0 nuclei)
Quadrupole couplings                    ...  NO (   0 nuclei)
Contact density                         ...  NO (   0 nuclei)

NMR properties:
Chemical shifts                         ...  NO (   0 nuclei)
Spin-rotation constants                 ...  NO (   0 nuclei)
Spin-spin couplings                     ...  NO (   0 nuclei,    0 pairs)

Choice of magnetic origin               ... GIAO
Position of magnetic origin             ...     0.000000     0.000000     0.000000

Properties with geometric perturbations:
SCF Hessian                             ...  NO
IR spectrum                             ...  NO
VCD spectrum                            ...  NO
X-ray spectroscopy properties:
SCF XES/XAS/RIXS spectra                ...  NO

SCF SOC stabilization energy            ...  NO
Diagonal Born-Oppenheimer correction    ...  NO

-------------
DIPOLE MOMENT
-------------

Method             : SCF
Type of density    : Electron Density
Multiplicity       :   1
Irrep              :   0
Energy             :  -554.3891980550387188 Eh
Basis              : AO
                                X                 Y                 Z
Electronic contribution:      3.930614293       0.793776936       3.100929878
Nuclear contribution   :     -4.532386305      -1.331792149      -2.926074290
                        -----------------------------------------
Total Dipole Moment    :     -0.601772012      -0.538015213       0.174855588
                        -----------------------------------------
Magnitude (a.u.)       :      0.825932443
Magnitude (Debye)      :      2.099353432



--------------------
Rotational spectrum 
--------------------
 
Rotational constants in cm-1:             0.079406             0.015436             0.013988 
Rotational constants in MHz :          2380.526148           462.757164           419.339852 

Dipole components along the rotational axes: 
x,y,z [a.u.] :    -0.556389     0.491304    -0.362238 
x,y,z [Debye]:    -1.414228     1.248796    -0.920735 

 

Dipole moment calculation done in   0.0 sec 

Maximum memory used throughout the entire PROP-calculation: 14.6 MB

--------------------------------
SUGGESTED CITATIONS FOR THIS RUN
--------------------------------

Below you find a list of papers that are relevant to this ORCA run
We neither can nor want to force you to cite these papers, but we appreciate if you do
You receive ORCA, which is the product of decades of hard work by many enthusiastic individuals, for free
The only thing we kindly ask in return is that you cite our papers,
We deeply appreciate it, if you show your appreciation for ORCA by not just citing the generic ORCA reference.

Please note that relegating all ORCA citations to the supporting information does *not* help us.
SI sections are not indexed - citations you put there will not count into any citation statistics
But we need these citations in order to attract the funding resources that allow us to do what we are doing

Therefore, if you are a happy ORCA user, please consider citing a few of the papers listed below in the main body of your paper

In addition to the list printed below, the program has created the file 5.bibtex that contains the list in bibtex format
You can import this file easily into all common literature databanks and citation aid programs


List of essential papers. We consider these as the minimum necessary citations

  1. Neese, F.
     Software update: the ORCA program system, version 6.0
     WIRES Comput. Molec. Sci. 2025 15(1), e70019
     doi.org/10.1002/wcms.7019

List of papers to cite with high priority. The work reported in these papers was absolutely
necessary for this run to complete.
Our perspective: the developers of density functionals and basis sets usually get cited in chemistry papers
Good! But without the algorithms to do something with them, the functionals or basis sets would not do anything.
Hence, in our opinion, the algorithm design and method developments papers are equally worthy of getting cited

  1. Neese, F.
     An improvement of the resolution of the identity approximation for the formation of the Coulomb matrix
     J. Comp. Chem. 2003 24(14), 1740-1747
     doi.org/10.1002/jcc.10318
  2. Grimme, S.
     Semiempirical GGA-type density functional constructed with a long-range dispersion correction
     J.Comput.Chem. 2006 27(15), 1787-1799
     doi.org/10.1002/jcc.20495
  3. Neese, F.
     The SHARK Integral Generation and Digestion System
     J. Comp. Chem. 2022 44(3), 381
     doi.org/10.1002/jcc.26942

List of suggested additional citations. These are papers that are important in the 'surrounding' of 
of this run, or papers that preceded the highly important papers. If you like your results we are grateful for a citation.

  1. Neese, F.
     The ORCA program system
     WIRES Comput. Molec. Sci. 2012 2(1), 73-78
     doi.org/10.1002/wcms.81
  2. Neese, F.
     Software update: the ORCA program system, version 4.0
     WIRES Comput. Molec. Sci. 2018 8(1), 1-6
     doi.org/10.1002/wcms.1327
  3. Neese, F.; Wennmohs, F.; Becker, U.; Riplinger, C.
     The ORCA quantum chemistry program package
     J. Chem. Phys. 2020 152(22), 224108
     doi.org/10.1063/5.0004608
  4. Neese, F.
     Software update: The ORCA program system—Version 5.0
     WIRES Comput. Molec. Sci. 2022 12(1), e1606
     doi.org/10.1002/wcms.1606

List of optional additional citations

  1. Neese, F.
     Approximate second-order SCF convergence for spin unrestricted wavefunctions
     Chem. Phys. Lett. 2000 325(1-3), 93-98
     doi.org/10.1016/s0009-2614(00)00662-x

Timings for individual modules:

Sum of individual times          ...      111.451 sec (=   1.858 min)
Startup calculation              ...        5.919 sec (=   0.099 min)   5.3 %
SCF iterations                   ...       65.545 sec (=   1.092 min)  58.8 %
Property calculations            ...        0.039 sec (=   0.001 min)   0.0 %
SCF Gradient evaluation          ...       39.929 sec (=   0.665 min)  35.8 %
Geometry relaxation              ...        0.019 sec (=   0.000 min)   0.0 %
                             ****ORCA TERMINATED NORMALLY****
TOTAL RUN TIME: 0 days 0 hours 1 minutes 51 seconds 693 msec
