
                                 *****************
                                 * O   R   C   A *
                                 *****************

                                            #,                                       
                                            ###                                      
                                            ####                                     
                                            #####                                    
                                            ######                                   
                                           ########,                                 
                                     ,,################,,,,,                         
                               ,,#################################,,                 
                          ,,##########################################,,             
                       ,#########################################, ''#####,          
                    ,#############################################,,   '####,        
                  ,##################################################,,,,####,       
                ,###########''''           ''''###############################       
              ,#####''   ,,,,##########,,,,          '''####'''          '####       
            ,##' ,,,,###########################,,,                        '##       
           ' ,,###''''                  '''############,,,                           
         ,,##''                                '''############,,,,        ,,,,,,###''
      ,#''                                            '''#######################'''  
     '                                                          ''''####''''         
             ,#######,   #######,   ,#######,      ##                                
            ,#'     '#,  ##    ##  ,#'     '#,    #''#        ,####,    ,#,          
            ##       ##  ##   ,#'  ##            #'  '#       #'       ,# #          
            ##       ##  #######   ##           ,######,      #####,      #          
            '#,     ,#'  ##    ##  '#,     ,#' ,#      #,     #,   #      #          
             '#######'   ##     ##  '#######'  #'      '#     '####' #    #          



                #########################################################
                #                        -***-                          #
                #          Department of theory and spectroscopy        #
                #                                                       #
                #                      Frank Neese                      #
                #                                                       #
                #     Directorship, Architecture, Infrastructure        #
                #                    SHARK, DRIVERS                     #
                #        Core code/Algorithms in most modules           #
                #                                                       #
                #        Max Planck Institute fuer Kohlenforschung      #
                #                Kaiser Wilhelm Platz 1                 #
                #                 D-45470 Muelheim/Ruhr                 #
                #                      Germany                          #
                #                                                       #
                #                  All rights reserved                  #
                #                        -***-                          #
                #########################################################


                         Program Version 6.1.0  -  RELEASE   -
                                (GIT: $679e74b$)
                          ($2025-06-10 18:02:51 +0200$)


 With contributions from (in alphabetic order):
[Max-Planck-Institut fuer Kohlenforschung]                               
  Daniel Aravena         : Magnetic Suceptibility                        
  Michael Atanasov       : Ab Initio Ligand Field Theory (pilot matlab implementation)
  Alexander A. Auer      : GIAO ZORA, VPT2 properties, NMR spectrum      
  Ute Becker             : All parallelization in ORCA, NUMFREQ, NUMCALC 
  Giovanni Bistoni       : ED, misc. LED, open-shell LED, HFLD           
  Dmytro Bykov           : pre 5.0 version of the SCF Hessian            
  Marcos Casanova-Páez   : Triplet and SCS-CIS(D). UHF-(DLPNO)-IP/EA/STEOM-CCSD. UHF-CVS-IP/STEOM-CCSD   
  Vijay G. Chilkuri      : MRCI spin determinant printing, contributions to CSF-ICE 
  Pauline Colinet        : FMM embedding                                 
  Dipayan Datta          : RHF DLPNO-CCSD density                        
  Achintya Kumar Dutta   : EOM-CC, STEOM-CC                              
  Nicolas Foglia         : Exact transition moments, OPA infrastructure, MCD improvements    
  Dmitry Ganyushin       : Spin-Orbit,Spin-Spin,Magnetic field MRCI      
  Miquel Garcia-Rates    : C-PCM and meta-GGA Hessian, CCSD/C-PCM, Gaussian charge scheme 
  Tiago L. C. Gouveia    : GS-ROHF, GS-ROCIS                             
  Yang Guo               : DLPNO-NEVPT2, F12-NEVPT2, CIM, IAO-localization        
  Andreas Hansen         : Spin unrestricted coupled pair/coupled cluster methods 
  Ingolf Harden          : AUTO-CI MPn and infrastructure                
  Benjamin Helmich-Paris : MC-RPA, TRAH-(SCF,CASSCF), AVAS, COSX integrals, SCF dyn. polar., MC-PDFT, srDFT 
  Lee Huntington         : MR-EOM, pCC                                   
  Robert Izsak           : Overlap fitted RIJCOSX, COSX-SCS-MP3, EOM     
  Riya Kayal             : Wick's Theorem for AUTO-CI, AUTO-CI UHF-CCSDT 
  Emily Kempfer          : AUTO-CI RHF CISDT and CCSDT, approximate NEVPT4
  Christian Kollmar      : KDIIS, OOCD, Brueckner-CCSD(T), CCSD density, CASPT2, CASPT2-K, improved NEVPT2 
  Axel Koslowski         : Symmetry handling                             
  Simone Kossmann        : meta-GGA functionals, TD-DFT gradient, OOMP2, (MP2 Hessian; deprecated post 5.0) 
  Lucas Lang             : DCDCAS, Hyperfine gauge corrections, ICE-SOC+SSC
  Marvin Lechner         : AUTO-CI (C++ implementation), FIC-MRCC        
  Spencer Leger          : CASSCF response                               
  Dagmar Lenk            : GEPOL surface, SMD, ORCA-2-JSON               
  Dimitrios Liakos       : Extrapolation schemes; Compound Job, Property file
  Dimitrios Manganas     : Further ROCIS development; embedding schemes. LFT, Crystal Embedding 
  Dimitrios Pantazis     : SARC Basis sets                               
  Anastasios Papadopoulos: AUTO-CI, single reference methods and gradients 
  Taras Petrenko         : pre 6.0 DFT Hessian and TD-DFT gradient,  ECA, NRVS 
  Petra Pikulova         : Analytic Raman intensities                    
  Peter Pinski           : DLPNO-MP2, DLPNO-MP2 Gradient                 
  Shashank Vittal Rao    : ES-AILFT, MagRelax                            
  Christoph Reimann      : Effective Core Potentials                     
  Marius Retegan         : Local ZFS, SOC                                
  Christoph Riplinger    : Optimizer, TS searches, QM/MM, DLPNO-CCSD(T), (RO)-DLPNO pert. Triples 
  Michael Roemelt        : Original ROCIS implementation, recursive CI coupling coefficients
  Masaaki Saitow         : Open-shell DLPNO-CCSD energy and density      
  Barbara Sandhoefer     : DKH picture change effects                    
  Yorick L. A. Schmerwitz: GMF and freeze-and-release deltaSCF, NEB S-IDPP initial path                    
  Kantharuban Sivalingam : CASSCF convergence/infrastructure, NEVPT2, NEVPT3, NEVPT4(SD), FIC-MRCI and CEPA variants
  Bernardo de Souza      : ESD, SOC TD-DFT                               
  Georgi L. Stoychev     : AutoAux, RI-MP2 NMR, DLPNO-MP2 response, X2C  
  Van Anh Tran           : RI-MP2 g-tensors                              
  Willem Van den Heuvel  : Paramagnetic NMR                              
  Zikuan Wang            : NOTCH, Electric field optimization            
  Frank Wennmohs         : Technical directorship and infrastructure     
  Hang Xu                : AUTO-CI-Response properties                   
                                                                         
[FACCTs GmbH]                                                            
  Markus Bursch, Nicolas Foglia, Miquel Garcia-Rates, Ingolf Harden, Hagen Neugebauer, Anastasios Papadopoulos, 
  Christoph Riplinger, Bernardo de Souza, Georgi L. Stoychev                                                    
                                                                 
  APM, various basis sets, CI-OPT, improved COSX, DLPNO-Multilevel,           
  DOCKER, DRACO, updates on ESD, Fragmentator, GOAT, IRC, LR-CPCM, L-BFGS, MBIS, meta-GGA TD-DFT gradient, ML-optimized integration grids, 
  MM, NACMEs, nearIR, NEB, NEB-TS, NL-DFT gradient (VV10), 2- and 3-layer-ONIOM, interface openCOSMO-RS, QMMM,   
  Crystal-QMMM, RESP, rigid body optimization, SF, symmetry and pop. for TD-DFT, various functionals, SOLVATOR                                   
                                                                         
[Other institutions]                                                     
  V. Asgeirsson          : NEB                                           
  Christoph Bannwarth    : sTDA-DFT, sTD-DFT, PBEh-3c, B97-3c, D3        
  Giovanni Bistoni       : ETS/NOCV, ADLD/ADEX, COVALED                  
  Martin Brehm           : Molecular dynamics                            
  Ronald Cardenas        : ETS/NOCV                                      
  Martina Colucci        : COVALED                                       
  Sebastian Ehlert       : rSCAN, r2SCAN, r2SCAN-3c, D4, dhf basis sets  
  Marvin Friede          : D4 for Fr, Ra, Ac-Lr                          
  Lars Goerigk           : TD-DFT with DH, B97 family of functionals     
  Stefan Grimme          : VdW corrections, initial TS optimization, DFT functionals, gCP, sTDA/sTD-DF 
  Waldemar Hujo          : DFT-NL                                        
  H. Jonsson             : NEB                                           
  Holger Kruse           : gCP                                           
  Marcel Mueller         : wB97X-3c, vDZP basis set                      
  Hagen Neugebauer       : wr2SCAN, Native XTB                           
  Gianluca Regni         : ADLD/ADEX                                     
  Tobias Risthaus        : pre 6.0 range-separated hybrid DFT and stability analysis
  Lukas Wittmann         : regularized MP2, r2SCAN double-hybrids, wr2SCAN        
                                                                         
We gratefully acknowledge several colleagues who have allowed us to      
interface, adapt or use parts of their codes:                            
  Ed Valeev, F. Pavosevic, A. Kumar             : LibInt (2-el integral package), F12 methods 
  Garnet Chan, S. Sharma, J. Yang, R. Olivares  : DMRG                   
  Ulf Ekstrom                                   : XCFun DFT Library      
  Mihaly Kallay                                 : mrcc  (arbitrary order and MRCC methods)
  Frank Weinhold                                : gennbo (NPA and NBO analysis)           
  Simon Mueller                                 : openCOSMO-RS                            
  Christopher J. Cramer and Donald G. Truhlar   : smd solvation model                     
  S Lehtola, MJT Oliveira, MAL Marques          : LibXC Library                           
  Liviu Ungur et al                             : ANISO software                          


 Your calculation uses the libint2 library for the computation of 2-el integrals
 For citations please refer to: http://libint.valeyev.net

 Your ORCA version has been built with support for libXC version: 7.0.0
 For citations please refer to: https://libxc.gitlab.io

 This ORCA versions uses:
   CBLAS   interface :  Fast vector & matrix operations
   LAPACKE interface :  Fast linear algebra routines
   SCALAPACK package :  Parallel linear algebra routines
   Shared memory     :  Shared parallel matrices
   BLAS/LAPACK       :  OpenBLAS 0.3.29  USE64BITINT DYNAMIC_ARCH NO_AFFINITY Haswell SINGLE_THREADED
        Core in use  :  Haswell
   Copyright (c) 2011-2014, The OpenBLAS Project


  ***********************************
  * Starting time: Sat Aug 16 15:52:09 2025
  * Host name:     CHEMLAB02
  * Process ID:    1906873
  * Working dir.:  /home/vivek/mm-project/vivek/xtb-goat/B97-D/a/3
  ***********************************



***************************************
The coordinates will be read from file: /home/vivek/mm-project/vivek/xtb-goat/xtb-goat/a/A_CONF/3.xyz
***************************************


Your calculation utilizes empirical dispersion correction


Warning: RI is on but no J-basis has been assigned. Assigning Def2/J (nothing to worry about!)
================================================================================

----- Orbital basis set information -----
Your calculation utilizes the basis: 6-31G**
   H-He, Li-Ne : W. J. Hehre, R. Ditchfield and J.A. Pople, J. Chem. Phys. 56, 2257 (1972).
                 Note: He and Ne are unpublished basis sets taken from the Gaussian program.
                 Note: Li and B from J. D. Dill and J. A. Pople, J. Chem. Phys. 62, 2921 (1975).
   Na - Ar     : M. M. Francl, W. J. Pietro, W. J. Hehre, J. S. Binkley, M. S. Gordon, 
                 D. J. DeFrees and J. A. Pople, J. Chem. Phys. 77, 3654 (1982).
   K - Zn      : V. A. Rassolov, J. A. Pople, M. A. Ratner, and T. L. Windus, J. Chem. Phys. 109, 1223 (1998).

----- AuxJ basis set information -----
Your calculation utilizes the auxiliary basis: def2/J
   H-Rn: F. Weigend, Phys. Chem. Chem. Phys. 8, 1057 (2006).
   Fr-Lr: K. Eichkorn, F. Weigend, O. Treutler, R. Ahlrichs; Theor. Chem. Acc. 97, 119 (1997).

================================================================================
                                        WARNINGS
                       Please study these warnings very carefully!
================================================================================


INFO   : The exchange functional is Grimme's B97(-D)
         As described in S. Grimme, J. Comput. Chem. 27, 1787 (2006).
         Note that this functional defaults to a pure GGA. 

INFO   : The correlation functional is Grimme's B97(-D)
         As described in S. Grimme, J. Comput. Chem. 27, 1787 (2006).

================================================================================
                                       INPUT FILE
================================================================================
NAME = 3.inp
|  1> ! B97-D 6-31G** 
|  2> 
|  3> * xyzfile 0 1 /home/vivek/mm-project/vivek/xtb-goat/xtb-goat/a/A_CONF/3.xyz
|  4> 
|  5>                          ****END OF INPUT****
================================================================================

                       ****************************
                       * Single Point Calculation *
                       ****************************

---------------------------------
CARTESIAN COORDINATES (ANGSTROEM)
---------------------------------
  C     -4.586903   -0.075067   -1.604585
  O     -3.915197   -0.393843   -0.656649
  O     -4.124048    0.727556   -2.568531
  C     -5.984876   -0.626868   -1.873399
  H     -3.214888    1.003899   -2.369139
  C     -6.739009    0.142519   -2.948375
  H     -6.187957    0.125652   -3.884971
  N     -5.872603   -2.031106   -2.250890
  H     -7.707116   -0.324763   -3.102454
  H     -6.882035    1.176054   -2.646845
  H     -6.535183   -0.595090   -0.925300
  H     -5.345795   -2.121500   -3.114108
  H     -5.390112   -2.553015   -1.527176

----------------------------
CARTESIAN COORDINATES (A.U.)
----------------------------
  NO LB      ZA    FRAG     MASS         X           Y           Z
   0 C     6.0000    0    12.011   -8.667990   -0.141856   -3.032226
   1 O     8.0000    0    15.999   -7.398650   -0.744256   -1.240887
   2 O     8.0000    0    15.999   -7.793321    1.374881   -4.853820
   3 C     6.0000    0    12.011  -11.309777   -1.184609   -3.540212
   4 H     1.0000    0     1.008   -6.075257    1.897094   -4.477025
   5 C     6.0000    0    12.011  -12.734882    0.269322   -5.571621
   6 H     1.0000    0     1.008  -11.693544    0.237448   -7.341531
   7 N     7.0000    0    14.007  -11.097611   -3.838234   -4.253566
   8 H     1.0000    0     1.008  -14.564338   -0.613712   -5.862789
   9 H     1.0000    0     1.008  -13.005162    2.222421   -5.001811
  10 H     1.0000    0     1.008  -12.349705   -1.124556   -1.748564
  11 H     1.0000    0     1.008  -10.102089   -4.009053   -5.884811
  12 H     1.0000    0     1.008  -10.185835   -4.824499   -2.885945

--------------------------------
INTERNAL COORDINATES (ANGSTROEM)
--------------------------------
 C      0   0   0     0.000000000000     0.00000000     0.00000000
 O      1   0   0     1.204736106999     0.00000000     0.00000000
 O      1   2   0     1.337022418425   122.21589747     0.00000000
 C      1   2   3     1.526786226320   123.60188565   175.03699106
 H      3   1   2     0.970924815311   110.30150439   358.85758419
 C      4   1   2     1.521921735055   113.28843646   167.53506697
 H      6   4   1     1.086809820536   110.46365224    58.85072193
 N      4   1   2     1.458419577691   108.84871449   290.25020104
 H      6   4   1     1.085966285934   108.93062999   178.35708490
 H      6   4   1     1.086081218356   110.50159508   298.51329238
 H      4   1   2     1.096694502584   107.26364345    45.54677840
 H      8   4   1     1.015303972226   110.22644816   297.12799372
 H      8   4   1     1.014370658881   110.32523737    56.68641138

---------------------------
INTERNAL COORDINATES (A.U.)
---------------------------
 C      0   0   0     0.000000000000     0.00000000     0.00000000
 O      1   0   0     2.276621305875     0.00000000     0.00000000
 O      1   2   0     2.526606205736   122.21589747     0.00000000
 C      1   2   3     2.885207832789   123.60188565   175.03699106
 H      3   1   2     1.834781997566   110.30150439   358.85758419
 C      4   1   2     2.876015276516   113.28843646   167.53506697
 H      6   4   1     2.053772920469   110.46365224    58.85072193
 N      4   1   2     2.756013590184   108.84871449   290.25020104
 H      6   4   1     2.052178871087   108.93062999   178.35708490
 H      6   4   1     2.052396061888   110.50159508   298.51329238
 H      4   1   2     2.072452262461   107.26364345    45.54677840
 H      8   4   1     1.918646450190   110.22644816   297.12799372
 H      8   4   1     1.916882743571   110.32523737    56.68641138

---------------------
BASIS SET INFORMATION
---------------------
There are 4 groups of distinct atoms

 Group   1 Type C   : 10s4p1d contracted to 3s2p1d pattern {631/31/1}
 Group   2 Type O   : 10s4p1d contracted to 3s2p1d pattern {631/31/1}
 Group   3 Type H   : 4s1p contracted to 2s1p pattern {31/1}
 Group   4 Type N   : 10s4p1d contracted to 3s2p1d pattern {631/31/1}

Atom   0C    basis set group =>   1
Atom   1O    basis set group =>   2
Atom   2O    basis set group =>   2
Atom   3C    basis set group =>   1
Atom   4H    basis set group =>   3
Atom   5C    basis set group =>   1
Atom   6H    basis set group =>   3
Atom   7N    basis set group =>   4
Atom   8H    basis set group =>   3
Atom   9H    basis set group =>   3
Atom  10H    basis set group =>   3
Atom  11H    basis set group =>   3
Atom  12H    basis set group =>   3
---------------------------------
AUXILIARY/J BASIS SET INFORMATION
---------------------------------
There are 4 groups of distinct atoms

 Group   1 Type C   : 12s5p4d2f1g contracted to 6s4p3d1f1g pattern {711111/2111/211/2/1}
 Group   2 Type O   : 12s5p4d2f1g contracted to 6s4p3d1f1g pattern {711111/2111/211/2/1}
 Group   3 Type H   : 5s2p1d contracted to 3s1p1d pattern {311/2/1}
 Group   4 Type N   : 12s5p4d2f1g contracted to 6s4p3d1f1g pattern {711111/2111/211/2/1}

Atom   0C    basis set group =>   1
Atom   1O    basis set group =>   2
Atom   2O    basis set group =>   2
Atom   3C    basis set group =>   1
Atom   4H    basis set group =>   3
Atom   5C    basis set group =>   1
Atom   6H    basis set group =>   3
Atom   7N    basis set group =>   4
Atom   8H    basis set group =>   3
Atom   9H    basis set group =>   3
Atom  10H    basis set group =>   3
Atom  11H    basis set group =>   3
Atom  12H    basis set group =>   3
------------------------------------------------------------------------------
                             ORCA STARTUP CALCULATIONS
                           -- RI-GTO INTEGRALS CHOSEN --
------------------------------------------------------------------------------
------------------------------------------------------------------------------
                   ___                                                        
                  /   \      - P O W E R E D   B Y -                         
                 /     \                                                     
                 |  |  |   _    _      __       _____    __    __             
                 |  |  |  | |  | |    /  \     |  _  \  |  |  /  |          
                  \  \/   | |  | |   /    \    | | | |  |  | /  /          
                 / \  \   | |__| |  /  /\  \   | |_| |  |  |/  /          
                |  |  |   |  __  | /  /__\  \  |    /   |      \           
                |  |  |   | |  | | |   __   |  |    \   |  |\   \          
                \     /   | |  | | |  |  |  |  | |\  \  |  | \   \       
                 \___/    |_|  |_| |__|  |__|  |_| \__\ |__|  \__/        
                                                                              
                      - O R C A' S   B I G   F R I E N D -                    
                                      &                                       
                       - I N T E G R A L  F E E D E R -                       
                                                                              
 v1 FN, 2020, v2 2021, v3 2022-2024                                           
------------------------------------------------------------------------------


----------------------
SHARK INTEGRAL PACKAGE
----------------------

Number of atoms                             ...     13
Number of basis functions                   ...    119
Number of shells                            ...     57
Maximum angular momentum                    ...      2
Integral batch strategy                     ... SHARK/LIBINT Hybrid
RI-J (if used) integral strategy            ... SPLIT-RIJ (Revised 2003 algorithm where possible)
Printlevel                                  ...      1
Contraction scheme used                     ... SEGMENTED contraction
Prescreening option                         ... SCHWARTZ
   Thresh                                   ... 1.000e-10
   Tcut                                     ... 1.000e-11
   Tpresel                                  ... 1.000e-11 
Coulomb Range Separation                    ... NOT USED
Exchange Range Separation                   ... NOT USED
Multipole approximations                    ... NOT USED
Finite Nucleus Model                        ... NOT USED
CABS basis                                  ... NOT available
Auxiliary Coulomb fitting basis             ... AVAILABLE
   # of basis functions in Aux-J            ...    371
   # of shells in Aux-J                     ...    125
   Maximum angular momentum in Aux-J        ...      4
Auxiliary J/K fitting basis                 ... NOT available
Auxiliary Correlation fitting basis         ... NOT available
Auxiliary 'external' fitting basis          ... NOT available

Checking pre-screening integrals            ... done (  0.0 sec) Dimension = 57
   => SHARK Basis and OBASIS are compatible. Storing Pre-screening
Shell pair information
Shell pair cut-off parameter TPreSel        ...   1.0e-11
Total number of shell pairs                 ...      1653
Shell pairs after pre-screening             ...      1595
Total number of primitive shell pairs       ...      8022
Primitive shell pairs kept                  ...      5530
          la=0 lb=0:    505 shell pairs
          la=1 lb=0:    584 shell pairs
          la=1 lb=1:    182 shell pairs
          la=2 lb=0:    190 shell pairs
          la=2 lb=1:    113 shell pairs
          la=2 lb=2:     21 shell pairs

Checking whether 4 symmetric matrices of dimension 119 fit in memory
:Max Core in MB      =   4096.00
 MB in use           =      5.52
 MB left             =   4090.48
 MB needed           =      0.22
 Data fit in memory  = YES
Calculating RI/J V-Matrix + Cholesky decomp.... done (  0.0 sec)
Calculating Nuclear repulsion               ... done (  0.0 sec) ENN=    250.603947714723 Eh

Diagonalization of the overlap matrix:
Smallest eigenvalue                        ... 3.657e-03
Time for diagonalization                   ...    0.001 sec
Threshold for overlap eigenvalues          ... 1.000e-07
Number of eigenvalues below threshold      ... 0
Time for construction of square roots      ...    0.000 sec
Total time needed                          ...    0.001 sec

-------------------
DFT GRID GENERATION
-------------------

General Integration Accuracy     IntAcc      ... 4.388
Radial Grid Type                 RadialGrid  ... OptM3 with GC (2021)
Angular Grid (max. ang.)         AngularGrid ... 4 (Lebedev-302)
Angular grid pruning method      GridPruning ... 4 (adaptive)
Weight generation scheme         WeightScheme... mBecke (2022)
Basis function cutoff            BFCut       ... 1.0000e-10
Integration weight cutoff        WCut        ... 1.0000e-14
Partially contracted basis set               ... off
Rotationally invariant grid construction     ... off
Angular grids for H and He will be reduced by one unit

Total number of grid points                  ...    58950
Total number of batches                      ...      927
Average number of points per batch           ...       63
Average number of grid points per atom       ...     4535
Grids setup in   0.2 sec
Initializing property integral containers    ... done (  0.0 sec)

SHARK setup successfully completed in   0.2 seconds

Maximum memory used throughout the entire STARTUP-calculation: 24.8 MB
-------------------------------------------------------------------------------
                                 ORCA GUESS
                   Start orbitals & Density for SCF / CASSCF
-------------------------------------------------------------------------------

------------
SCF SETTINGS
------------
Hamiltonian:
 Density Functional     Method          .... DFT(GTOs)
 Exchange Functional    Exchange        .... B97(D)
 Correlation Functional Correlation     .... B97(D)
 Gradients option       PostSCFGGA      .... off
 RI-approximation to the Coulomb term is turned on
   Number of AuxJ basis functions       .... 371


General Settings:
 Integral files         IntName         .... 3
 Hartree-Fock type      HFTyp           .... RHF
 Total Charge           Charge          ....    0
 Multiplicity           Mult            ....    1
 Number of Electrons    NEL             ....   48
 Basis Dimension        Dim             ....  119
 Nuclear Repulsion      ENuc            ....    250.6039477147 Eh

Convergence Acceleration:
 AO-DIIS                CNVDIIS         .... on
   Start iteration      DIISMaxIt       ....    12
   Startup error        DIISStart       ....  0.200000
   # of expansion vecs  DIISMaxEq       ....     5
   Bias factor          DIISBfac        ....   1.050
   Max. coefficient     DIISMaxC        ....  10.000
 MO-DIIS                CNVKDIIS        .... off
 Trust-Rad. Augm. Hess. CNVTRAH         .... auto
   Auto Start mean grad. ratio tolernc. ....  1.125000
   Auto Start start iteration           ....    50
   Auto Start num. interpolation iter.  ....    10
   Max. Number of Micro iterations      ....    24
   Max. Number of Macro iterations      .... Maxiter - #DIIS iter
   Number of Davidson start vectors     ....     2
   Converg. threshold    (grad. norm)   ....   5.000e-05
   Grad. Scal. Fac. for Micro threshold ....   0.100
   Minimum threshold for Micro iter.    ....   1.000e-02
   NR start threshold (gradient norm)   ....   1.000e-04
   Initial trust radius                 ....   0.400
   Minimum AH scaling param. (alpha)    ....   1.000
   Maximum AH scaling param. (alpha)    .... 1000.000
   Quad. conv. algorithm                .... NR
   White noise on init. David. guess    .... on
   Maximum white noise                  ....   0.010
   Pseudo random numbers                .... off
   Inactive MOs                         .... canonical
   Orbital update algorithm             .... Taylor
   Preconditioner                       .... Diag
   Full preconditioner red. dimension   ....   250
 SOSCF                 CNVSOSCF           .... on
   Start iteration     SOSCFMaxIt         ....   150
   Startup grad/error  SOSCFStart         ....  0.003300
   Hessian update      SOSCFHessUp        .... L-BFGS
   Autom. constraints  SOSCFAutoConstrain .... off
 Level Shifting         CNVShift        .... on
   Level shift para.    LevelShift      ....    0.2500
   Turn off err/grad.   ShiftErr        ....    0.0010
 Zerner damping         CNVZerner       .... off
 Static damping         CNVDamp         .... on
   Fraction old density DampFac         ....    0.7000
   Max. Damping (<1)    DampMax         ....    0.9800
   Min. Damping (>=0)   DampMin         ....    0.0000
   Turn off err/grad.   DampErr         ....    0.1000

SCF Procedure:
 Maximum # iterations   MaxIter         ....   125
 SCF integral mode      SCFMode         .... Direct
   Integral package                     .... SHARK and LIBINT hybrid scheme
 Reset frequency        DirectResetFreq ....    20
 Integral Threshold     Thresh          ....  1.000e-10 Eh
 Primitive CutOff       TCut            ....  1.000e-11 Eh

Convergence Tolerance:
 Convergence Check Mode ConvCheckMode   .... Total+1el-Energy
 Convergence forced     ConvForced      .... 0
 Energy Change          TolE            ....  1.000e-06 Eh
 1-El. energy change                    ....  1.000e-03 Eh
 Orbital Gradient       TolG            ....  5.000e-05
 Orbital Rotation angle TolX            ....  5.000e-05
 DIIS Error             TolErr          ....  1.000e-06

------------------------------
INITIAL GUESS: MODEL POTENTIAL
------------------------------
Loading Hartree-Fock densities                     ... done
Calculating cut-offs                               ... done
Initializing the effective Hamiltonian             ... done
Setting up the integral package (SHARK)            ... done
Starting the Coulomb interaction                   ... done (   0.0 sec)
Making the grid                                    ... done (   0.0 sec)
Mapping shells                                     ... done
Starting the XC term evaluation                    ... done (   0.0 sec)
  promolecular density results
     # of electrons  =     47.998285635
     EX              =    -39.858391599
     EC              =     -2.124223715
     EX+EC           =    -41.982615314
Transforming the Hamiltonian                       ... done (   0.0 sec)
Diagonalizing the Hamiltonian                      ... done (   0.0 sec)
Back transforming the eigenvectors                 ... done (   0.0 sec)
Now organizing SCF variables                       ... done
                      ------------------
                      INITIAL GUESS DONE (   0.1 sec)
                      ------------------
             **** ENERGY FILE WAS UPDATED (3.en.tmp) ****
Finished Guess after   0.1 sec
Maximum memory used throughout the entire GUESS-calculation: 9.4 MB

-------------------------------------------------------------------------------------------
                                      ORCA LEAN-SCF
                              memory conserving SCF solver
-------------------------------------------------------------------------------------------

----------------------------------------D-I-I-S--------------------------------------------
Iteration    Energy (Eh)           Delta-E    RMSDP     MaxDP     DIISErr   Damp  Time(sec)
-------------------------------------------------------------------------------------------
               ***  Starting incremental Fock matrix formation  ***
    1    -323.2659704195527866     0.00e+00  4.89e-03  1.03e-01  2.64e-01  0.700   0.2
    2    -323.3987410285274109    -1.33e-01  3.02e-03  5.39e-02  9.76e-02  0.700   0.2
                               ***Turning on AO-DIIS***
    3    -323.4380579541910947    -3.93e-02  1.12e-03  1.51e-02  3.10e-02  0.700   0.2
    4    -323.4641971455550902    -2.61e-02  1.47e-03  1.90e-02  1.36e-02  0.000   0.2
    5    -323.5254409454092865    -6.12e-02  5.20e-04  8.19e-03  1.19e-02  0.000   0.2
    6    -323.5260829919160415    -6.42e-04  1.88e-04  2.61e-03  3.38e-03  0.000   0.2
                              *** Initializing SOSCF ***
---------------------------------------S-O-S-C-F--------------------------------------
Iteration    Energy (Eh)           Delta-E    RMSDP     MaxDP     MaxGrad    Time(sec)
--------------------------------------------------------------------------------------
    7    -323.5261341288320409    -5.11e-05  7.02e-05  1.01e-03  1.42e-03     0.2
               *** Restarting incremental Fock matrix formation ***
    8    -323.5261416420057685    -7.51e-06  4.80e-05  7.76e-04  1.12e-04     0.2
    9    -323.5261417854496813    -1.43e-07  2.40e-05  4.26e-04  2.85e-04     0.2
                 **** Energy Check signals convergence ****

               *****************************************************
               *                     SUCCESS                       *
               *           SCF CONVERGED AFTER   9 CYCLES          *
               *****************************************************

             **** ENERGY FILE WAS UPDATED (3.en.tmp) ****

----------------
TOTAL SCF ENERGY
----------------

Total Energy       :       -323.52614220623650 Eh           -8803.59390 eV

Components:
Nuclear Repulsion  :        250.60394771472318 Eh            6819.28010 eV
Electronic Energy  :       -574.13008992095968 Eh          -15622.87400 eV
One Electron Energy:       -937.61224219677501 Eh          -25513.72620 eV
Two Electron Energy:        363.48215227581534 Eh            9890.85220 eV

Virial components:
Potential Energy   :       -645.40964815414213 Eh          -17562.48939 eV
Kinetic Energy     :        321.88350594790558 Eh            8758.89549 eV
Virial Ratio       :          2.00510320108977

DFT components:
N(Alpha)           :       24.000021393938 electrons
N(Beta)            :       24.000021393938 electrons
N(Total)           :       48.000042787876 electrons
E(X)               :      -40.769958826095 Eh       
E(C)               :       -2.116041690851 Eh       
E(XC)              :      -42.886000516946 Eh       

---------------
SCF CONVERGENCE
---------------

  Last Energy change         ...    1.4344e-07  Tolerance :   1.0000e-06
  Last MAX-Density change    ...    4.2580e-04  Tolerance :   1.0000e-05
  Last RMS-Density change    ...    2.3988e-05  Tolerance :   1.0000e-06
  Last DIIS Error            ...    1.4185e-03  Tolerance :   1.0000e-06
  Last Orbital Gradient      ...    2.8500e-04  Tolerance :   5.0000e-05
  Last Orbital Rotation      ...    5.6262e-04  Tolerance :   5.0000e-05


----------------
ORBITAL ENERGIES
----------------

  NO   OCC          E(Eh)            E(eV) 
   0   2.0000     -18.814461      -511.9675 
   1   2.0000     -18.747472      -510.1446 
   2   2.0000     -13.994939      -380.8217 
   3   2.0000     -10.025644      -272.8117 
   4   2.0000      -9.949078      -270.7282 
   5   2.0000      -9.897837      -269.3338 
   6   2.0000      -1.019977       -27.7550 
   7   2.0000      -0.927417       -25.2363 
   8   2.0000      -0.819682       -22.3047 
   9   2.0000      -0.680152       -18.5079 
  10   2.0000      -0.598693       -16.2913 
  11   2.0000      -0.545196       -14.8355 
  12   2.0000      -0.449201       -12.2234 
  13   2.0000      -0.440740       -11.9931 
  14   2.0000      -0.415017       -11.2932 
  15   2.0000      -0.409531       -11.1439 
  16   2.0000      -0.370262       -10.0753 
  17   2.0000      -0.352031        -9.5793 
  18   2.0000      -0.331333        -9.0160 
  19   2.0000      -0.327729        -8.9180 
  20   2.0000      -0.313180        -8.5221 
  21   2.0000      -0.270465        -7.3597 
  22   2.0000      -0.227459        -6.1895 
  23   2.0000      -0.193113        -5.2549 
  24   0.0000      -0.017278        -0.4701 
  25   0.0000       0.047494         1.2924 
  26   0.0000       0.078068         2.1243 
  27   0.0000       0.105688         2.8759 
  28   0.0000       0.118444         3.2230 
  29   0.0000       0.144513         3.9324 
  30   0.0000       0.158565         4.3148 
  31   0.0000       0.159738         4.3467 
  32   0.0000       0.190360         5.1800 
  33   0.0000       0.209494         5.7006 
  34   0.0000       0.229005         6.2316 
*Only the first 10 virtual orbitals were printed.

                    ********************************
                    * MULLIKEN POPULATION ANALYSIS *
                    ********************************

-----------------------
MULLIKEN ATOMIC CHARGES
-----------------------
   0 C :    0.496386
   1 O :   -0.427406
   2 O :   -0.453391
   3 C :   -0.039658
   4 H :    0.315833
   5 C :   -0.314764
   6 H :    0.118179
   7 N :   -0.559211
   8 H :    0.122695
   9 H :    0.115423
  10 H :    0.134114
  11 H :    0.238923
  12 H :    0.252877
Sum of atomic charges:   -0.0000000

--------------------------------
MULLIKEN REDUCED ORBITAL CHARGES
--------------------------------
  0 C s       :     2.985787  s :     2.985787
      pz      :     0.734681  p :     2.393552
      px      :     0.886789
      py      :     0.772082
      dz2     :     0.031744  d :     0.124275
      dxz     :     0.029830
      dyz     :     0.028298
      dx2y2   :     0.020387
      dxy     :     0.014015

  1 O s       :     3.857392  s :     3.857392
      pz      :     1.425657  p :     4.542180
      px      :     1.596870
      py      :     1.519653
      dz2     :     0.008627  d :     0.027834
      dxz     :     0.006909
      dyz     :     0.005821
      dx2y2   :     0.002774
      dxy     :     0.003702

  2 O s       :     3.822560  s :     3.822560
      pz      :     1.618329  p :     4.607971
      px      :     1.385007
      py      :     1.604634
      dz2     :     0.006234  d :     0.022860
      dxz     :     0.004320
      dyz     :     0.005584
      dx2y2   :     0.004843
      dxy     :     0.001879

  3 C s       :     3.210270  s :     3.210270
      pz      :     1.022038  p :     2.771590
      px      :     0.917095
      py      :     0.832457
      dz2     :     0.010982  d :     0.057798
      dxz     :     0.009024
      dyz     :     0.009007
      dx2y2   :     0.013667
      dxy     :     0.015119

  4 H s       :     0.646318  s :     0.646318
      pz      :     0.008325  p :     0.037850
      px      :     0.020002
      py      :     0.009523

  5 C s       :     3.243445  s :     3.243445
      pz      :     0.997877  p :     3.042285
      px      :     1.028029
      py      :     1.016379
      dz2     :     0.006891  d :     0.029035
      dxz     :     0.006702
      dyz     :     0.004002
      dx2y2   :     0.006897
      dxy     :     0.004544

  6 H s       :     0.870058  s :     0.870058
      pz      :     0.005437  p :     0.011763
      px      :     0.003679
      py      :     0.002647

  7 N s       :     3.603061  s :     3.603061
      pz      :     1.151123  p :     3.927600
      px      :     1.633469
      py      :     1.143008
      dz2     :     0.002564  d :     0.028550
      dxz     :     0.010171
      dyz     :     0.005218
      dx2y2   :     0.005876
      dxy     :     0.004720

  8 H s       :     0.865736  s :     0.865736
      pz      :     0.002588  p :     0.011570
      px      :     0.005652
      py      :     0.003330

  9 H s       :     0.872928  s :     0.872928
      pz      :     0.002765  p :     0.011649
      px      :     0.002725
      py      :     0.006158

 10 H s       :     0.855110  s :     0.855110
      pz      :     0.005577  p :     0.010776
      px      :     0.003458
      py      :     0.001741

 11 H s       :     0.737159  s :     0.737159
      pz      :     0.010300  p :     0.023918
      px      :     0.008766
      py      :     0.004851

 12 H s       :     0.723311  s :     0.723311
      pz      :     0.008319  p :     0.023812
      px      :     0.008472
      py      :     0.007021



                     *******************************
                     * LOEWDIN POPULATION ANALYSIS *
                     *******************************

----------------------
LOEWDIN ATOMIC CHARGES
----------------------
   0 C :    0.097555
   1 O :   -0.230670
   2 O :   -0.138086
   3 C :   -0.041929
   4 H :    0.180859
   5 C :   -0.197874
   6 H :    0.074447
   7 N :   -0.239298
   8 H :    0.078587
   9 H :    0.075917
  10 H :    0.085727
  11 H :    0.124270
  12 H :    0.130494

-------------------------------
LOEWDIN REDUCED ORBITAL CHARGES
-------------------------------
  0 C s       :     2.859744  s :     2.859744
      pz      :     0.914544  p :     2.746967
      px      :     0.999138
      py      :     0.833285
      dz2     :     0.074832  d :     0.295734
      dxz     :     0.071472
      dyz     :     0.071189
      dx2y2   :     0.046922
      dxy     :     0.031320

  1 O s       :     3.555037  s :     3.555037
      pz      :     1.484969  p :     4.617789
      px      :     1.619742
      py      :     1.513078
      dz2     :     0.015645  d :     0.057844
      dxz     :     0.018903
      dyz     :     0.011065
      dx2y2   :     0.006087
      dxy     :     0.006145

  2 O s       :     3.471029  s :     3.471029
      pz      :     1.628730  p :     4.615771
      px      :     1.393212
      py      :     1.593828
      dz2     :     0.011596  d :     0.051287
      dxz     :     0.009145
      dyz     :     0.012896
      dx2y2   :     0.010599
      dxy     :     0.007051

  3 C s       :     2.882590  s :     2.882590
      pz      :     1.062934  p :     3.029277
      px      :     1.017236
      py      :     0.949107
      dz2     :     0.023310  d :     0.130062
      dxz     :     0.020807
      dyz     :     0.020013
      dx2y2   :     0.031641
      dxy     :     0.034291

  4 H s       :     0.703367  s :     0.703367
      pz      :     0.024470  p :     0.115775
      px      :     0.064095
      py      :     0.027210

  5 C s       :     2.917719  s :     2.917719
      pz      :     1.063055  p :     3.217477
      px      :     1.080324
      py      :     1.074098
      dz2     :     0.014444  d :     0.062677
      dxz     :     0.015242
      dyz     :     0.009308
      dx2y2   :     0.013892
      dxy     :     0.009792

  6 H s       :     0.885218  s :     0.885218
      pz      :     0.021121  p :     0.040334
      px      :     0.012062
      py      :     0.007151

  7 N s       :     3.203716  s :     3.203716
      pz      :     1.173499  p :     3.978031
      px      :     1.608050
      py      :     1.196482
      dz2     :     0.007887  d :     0.057551
      dxz     :     0.015908
      dyz     :     0.013546
      dx2y2   :     0.012067
      dxy     :     0.008142

  8 H s       :     0.880974  s :     0.880974
      pz      :     0.007669  p :     0.040439
      px      :     0.022118
      py      :     0.010652

  9 H s       :     0.884176  s :     0.884176
      pz      :     0.008424  p :     0.039907
      px      :     0.007566
      py      :     0.023917

 10 H s       :     0.876076  s :     0.876076
      pz      :     0.020956  p :     0.038197
      px      :     0.011612
      py      :     0.005629

 11 H s       :     0.796803  s :     0.796803
      pz      :     0.036007  p :     0.078927
      px      :     0.029596
      py      :     0.013324

 12 H s       :     0.789956  s :     0.789956
      pz      :     0.028455  p :     0.079550
      px      :     0.028290
      py      :     0.022804



                      *****************************
                      * MAYER POPULATION ANALYSIS *
                      *****************************

  NA   - Mulliken gross atomic population
  ZA   - Total nuclear charge
  QA   - Mulliken gross atomic charge
  VA   - Mayer's total valence
  BVA  - Mayer's bonded valence
  FA   - Mayer's free valence

  ATOM       NA         ZA         QA         VA         BVA        FA
  0 C      5.5036     6.0000     0.4964     3.9462     3.9462    -0.0000
  1 O      8.4274     8.0000    -0.4274     2.0920     2.0920     0.0000
  2 O      8.4534     8.0000    -0.4534     2.0535     2.0535    -0.0000
  3 C      6.0397     6.0000    -0.0397     3.8860     3.8860    -0.0000
  4 H      0.6842     1.0000     0.3158     0.9207     0.9207    -0.0000
  5 C      6.3148     6.0000    -0.3148     3.8646     3.8646     0.0000
  6 H      0.8818     1.0000     0.1182     0.9620     0.9620     0.0000
  7 N      7.5592     7.0000    -0.5592     2.8998     2.8998    -0.0000
  8 H      0.8773     1.0000     0.1227     0.9559     0.9559     0.0000
  9 H      0.8846     1.0000     0.1154     0.9565     0.9565    -0.0000
 10 H      0.8659     1.0000     0.1341     0.9456     0.9456    -0.0000
 11 H      0.7611     1.0000     0.2389     0.9225     0.9225    -0.0000
 12 H      0.7471     1.0000     0.2529     0.9223     0.9223    -0.0000

  Mayer bond orders larger than 0.100000
B(  0-C ,  1-O ) :   1.8991 B(  0-C ,  2-O ) :   1.0905 B(  0-C ,  3-C ) :   0.9116 
B(  2-O ,  4-H ) :   0.8512 B(  3-C ,  5-C ) :   0.9964 B(  3-C ,  7-N ) :   1.0188 
B(  3-C , 10-H ) :   0.9342 B(  5-C ,  6-H ) :   0.9539 B(  5-C ,  8-H ) :   0.9509 
B(  5-C ,  9-H ) :   0.9580 B(  7-N , 11-H ) :   0.9063 B(  7-N , 12-H ) :   0.8989 


-------
TIMINGS
-------

Total SCF time: 0 days 0 hours 0 min 2 sec 

Total time                  ....       2.141 sec
Sum of individual times     ....       1.949 sec  ( 91.0%)

SCF preparation             ....       0.023 sec  (  1.1%)
Fock matrix formation       ....       1.882 sec  ( 87.9%)
  Startup                   ....       0.000 sec  (  0.0% of F)
  Split-RI-J                ....       0.512 sec  ( 27.2% of F)
  XC integration            ....       1.552 sec  ( 82.5% of F)
    XC Preparation          ....       0.000 sec  (  0.0% of XC)
    Basis function eval.    ....       0.523 sec  ( 33.7% of XC)
    Density eval.           ....       0.298 sec  ( 19.2% of XC)
    XC-Functional eval.     ....       0.345 sec  ( 22.2% of XC)
    XC-Potential eval.      ....       0.339 sec  ( 21.9% of XC)
Diagonalization             ....       0.000 sec  (  0.0%)
Density matrix formation    ....       0.002 sec  (  0.1%)
Total Energy calculation    ....       0.000 sec  (  0.0%)
Population analysis         ....       0.012 sec  (  0.6%)
Orbital Transformation      ....       0.016 sec  (  0.8%)
Orbital Orthonormalization  ....       0.000 sec  (  0.0%)
DIIS solution               ....       0.011 sec  (  0.5%)
SOSCF solution              ....       0.003 sec  (  0.1%)
Finished LeanSCF after   2.1 sec

Maximum memory used throughout the entire LEANSCF-calculation: 12.8 MB



-------------------------------------------------------------------------------
                          DFT DISPERSION CORRECTION                            
-------------------------------------------------------------------------------
Active option DFTDOPT                   ...         2   
Final C6-coefficient scaling factor     ...     1.250
Final VDW-radii scaling factor          ...     1.100
Damping factor alpha                    ...    20.000
-------------------------   ----------------
Dispersion correction           -0.013236472
-------------------------   ----------------


-------------------------   --------------------
FINAL SINGLE POINT ENERGY      -323.539378677885
-------------------------   --------------------


------------------------------------------------------------------------------
                              ORCA PROPERTY CALCULATIONS
------------------------------------------------------------------------------

GBWName                                 ... 3.gbw
Number of atoms                         ...     13
Number of basis functions               ...    119
Max core memory                         ...   4096 MB

Electric properties:
Dipole moment                           ... YES
Quadrupole moment                       ...  NO
Static polarizability (Dipole/Dipole)   ...  NO
Static polarizability (Dipole/Quad.)    ...  NO
Static polarizability (Quad./Quad.)     ...  NO
Static polarizability (Velocity)        ...  NO
Static hyperpolarizability              ...  NO

Atomic electric properties:
Dipole moment                           ...  NO
Quadrupole moment                       ...  NO
Static polarizability                   ...  NO

Choice of electric origin               ... Center of mass
Position of electric origin             ...    -9.765101    -0.703018    -3.776004

General magnetic properties:
Magnetizability                         ...  NO

EPR properties:
g-Tensor (aka g-matrix)                 ...  NO
Zero-Field splitting spin-orbit         ...  NO
Zero-field splitting spin-spin          ...  NO
Hyperfine couplings                     ...  NO (   0 nuclei)
Quadrupole couplings                    ...  NO (   0 nuclei)
Contact density                         ...  NO (   0 nuclei)

NMR properties:
Chemical shifts                         ...  NO (   0 nuclei)
Spin-rotation constants                 ...  NO (   0 nuclei)
Spin-spin couplings                     ...  NO (   0 nuclei,    0 pairs)

Choice of magnetic origin               ... GIAO
Position of magnetic origin             ...     0.000000     0.000000     0.000000

Properties with geometric perturbations:
SCF Hessian                             ...  NO
IR spectrum                             ...  NO
VCD spectrum                            ...  NO
X-ray spectroscopy properties:
SCF XES/XAS/RIXS spectra                ...  NO

SCF SOC stabilization energy            ...  NO
Diagonal Born-Oppenheimer correction    ...  NO

-------------
DIPOLE MOMENT
-------------

Method             : SCF
Type of density    : Electron Density
Multiplicity       :   1
Irrep              :   0
Energy             :  -323.5261422062365000 Eh
Basis              : AO
                                X                 Y                 Z
Electronic contribution:      4.968048989       0.918141767       2.808569574
Nuclear contribution   :     -4.746001008      -0.635484789      -3.351254226
                        -----------------------------------------
Total Dipole Moment    :      0.222047981       0.282656978      -0.542684653
                        -----------------------------------------
Magnitude (a.u.)       :      0.650927727
Magnitude (Debye)      :      1.654526794



--------------------
Rotational spectrum 
--------------------
 
Rotational constants in cm-1:             0.168951             0.106105             0.077015 
Rotational constants in MHz :          5065.014484          3180.947022          2308.857575 

Dipole components along the rotational axes: 
x,y,z [a.u.] :     0.066683     0.510220    -0.398667 
x,y,z [Debye]:     0.169495     1.296877    -1.013331 

 

Dipole moment calculation done in   0.0 sec 

Maximum memory used throughout the entire PROP-calculation: 7.1 MB

--------------------------------
SUGGESTED CITATIONS FOR THIS RUN
--------------------------------

Below you find a list of papers that are relevant to this ORCA run
We neither can nor want to force you to cite these papers, but we appreciate if you do
You receive ORCA, which is the product of decades of hard work by many enthusiastic individuals, for free
The only thing we kindly ask in return is that you cite our papers,
We deeply appreciate it, if you show your appreciation for ORCA by not just citing the generic ORCA reference.

Please note that relegating all ORCA citations to the supporting information does *not* help us.
SI sections are not indexed - citations you put there will not count into any citation statistics
But we need these citations in order to attract the funding resources that allow us to do what we are doing

Therefore, if you are a happy ORCA user, please consider citing a few of the papers listed below in the main body of your paper

In addition to the list printed below, the program has created the file 3.bibtex that contains the list in bibtex format
You can import this file easily into all common literature databanks and citation aid programs


List of essential papers. We consider these as the minimum necessary citations

  1. Neese, F.
     Software update: the ORCA program system, version 6.0
     WIRES Comput. Molec. Sci. 2025 15(1), e70019
     doi.org/10.1002/wcms.7019

List of papers to cite with high priority. The work reported in these papers was absolutely
necessary for this run to complete.
Our perspective: the developers of density functionals and basis sets usually get cited in chemistry papers
Good! But without the algorithms to do something with them, the functionals or basis sets would not do anything.
Hence, in our opinion, the algorithm design and method developments papers are equally worthy of getting cited

  1. Neese, F.
     An improvement of the resolution of the identity approximation for the formation of the Coulomb matrix
     J. Comp. Chem. 2003 24(14), 1740-1747
     doi.org/10.1002/jcc.10318
  2. Grimme, S.
     Semiempirical GGA-type density functional constructed with a long-range dispersion correction
     J.Comput.Chem. 2006 27(15), 1787-1799
     doi.org/10.1002/jcc.20495
  3. Neese, F.
     The SHARK Integral Generation and Digestion System
     J. Comp. Chem. 2022 44(3), 381
     doi.org/10.1002/jcc.26942

List of suggested additional citations. These are papers that are important in the 'surrounding' of 
of this run, or papers that preceded the highly important papers. If you like your results we are grateful for a citation.

  1. Neese, F.
     The ORCA program system
     WIRES Comput. Molec. Sci. 2012 2(1), 73-78
     doi.org/10.1002/wcms.81
  2. Neese, F.
     Software update: the ORCA program system, version 4.0
     WIRES Comput. Molec. Sci. 2018 8(1), 1-6
     doi.org/10.1002/wcms.1327
  3. Neese, F.; Wennmohs, F.; Becker, U.; Riplinger, C.
     The ORCA quantum chemistry program package
     J. Chem. Phys. 2020 152(22), 224108
     doi.org/10.1063/5.0004608
  4. Neese, F.
     Software update: The ORCA program system—Version 5.0
     WIRES Comput. Molec. Sci. 2022 12(1), e1606
     doi.org/10.1002/wcms.1606

List of optional additional citations

  1. Neese, F.
     Approximate second-order SCF convergence for spin unrestricted wavefunctions
     Chem. Phys. Lett. 2000 325(1-3), 93-98
     doi.org/10.1016/s0009-2614(00)00662-x

Timings for individual modules:

Sum of individual times          ...        2.582 sec (=   0.043 min)
Startup calculation              ...        0.247 sec (=   0.004 min)   9.6 %
SCF iterations                   ...        2.300 sec (=   0.038 min)  89.1 %
Property calculations            ...        0.035 sec (=   0.001 min)   1.4 %
                             ****ORCA TERMINATED NORMALLY****
TOTAL RUN TIME: 0 days 0 hours 0 minutes 2 seconds 620 msec
