
                                 *****************
                                 * O   R   C   A *
                                 *****************

                                            #,                                       
                                            ###                                      
                                            ####                                     
                                            #####                                    
                                            ######                                   
                                           ########,                                 
                                     ,,################,,,,,                         
                               ,,#################################,,                 
                          ,,##########################################,,             
                       ,#########################################, ''#####,          
                    ,#############################################,,   '####,        
                  ,##################################################,,,,####,       
                ,###########''''           ''''###############################       
              ,#####''   ,,,,##########,,,,          '''####'''          '####       
            ,##' ,,,,###########################,,,                        '##       
           ' ,,###''''                  '''############,,,                           
         ,,##''                                '''############,,,,        ,,,,,,###''
      ,#''                                            '''#######################'''  
     '                                                          ''''####''''         
             ,#######,   #######,   ,#######,      ##                                
            ,#'     '#,  ##    ##  ,#'     '#,    #''#        ,####,    ,#,          
            ##       ##  ##   ,#'  ##            #'  '#       #'       ,# #          
            ##       ##  #######   ##           ,######,      #####,      #          
            '#,     ,#'  ##    ##  '#,     ,#' ,#      #,     #,   #      #          
             '#######'   ##     ##  '#######'  #'      '#     '####' #    #          



                #########################################################
                #                        -***-                          #
                #          Department of theory and spectroscopy        #
                #                                                       #
                #                      Frank Neese                      #
                #                                                       #
                #     Directorship, Architecture, Infrastructure        #
                #                    SHARK, DRIVERS                     #
                #        Core code/Algorithms in most modules           #
                #                                                       #
                #        Max Planck Institute fuer Kohlenforschung      #
                #                Kaiser Wilhelm Platz 1                 #
                #                 D-45470 Muelheim/Ruhr                 #
                #                      Germany                          #
                #                                                       #
                #                  All rights reserved                  #
                #                        -***-                          #
                #########################################################


                         Program Version 6.1.0  -  RELEASE   -
                                (GIT: $679e74b$)
                          ($2025-06-10 18:02:51 +0200$)


 With contributions from (in alphabetic order):
[Max-Planck-Institut fuer Kohlenforschung]                               
  Daniel Aravena         : Magnetic Suceptibility                        
  Michael Atanasov       : Ab Initio Ligand Field Theory (pilot matlab implementation)
  Alexander A. Auer      : GIAO ZORA, VPT2 properties, NMR spectrum      
  Ute Becker             : All parallelization in ORCA, NUMFREQ, NUMCALC 
  Giovanni Bistoni       : ED, misc. LED, open-shell LED, HFLD           
  Dmytro Bykov           : pre 5.0 version of the SCF Hessian            
  Marcos Casanova-Páez   : Triplet and SCS-CIS(D). UHF-(DLPNO)-IP/EA/STEOM-CCSD. UHF-CVS-IP/STEOM-CCSD   
  Vijay G. Chilkuri      : MRCI spin determinant printing, contributions to CSF-ICE 
  Pauline Colinet        : FMM embedding                                 
  Dipayan Datta          : RHF DLPNO-CCSD density                        
  Achintya Kumar Dutta   : EOM-CC, STEOM-CC                              
  Nicolas Foglia         : Exact transition moments, OPA infrastructure, MCD improvements    
  Dmitry Ganyushin       : Spin-Orbit,Spin-Spin,Magnetic field MRCI      
  Miquel Garcia-Rates    : C-PCM and meta-GGA Hessian, CCSD/C-PCM, Gaussian charge scheme 
  Tiago L. C. Gouveia    : GS-ROHF, GS-ROCIS                             
  Yang Guo               : DLPNO-NEVPT2, F12-NEVPT2, CIM, IAO-localization        
  Andreas Hansen         : Spin unrestricted coupled pair/coupled cluster methods 
  Ingolf Harden          : AUTO-CI MPn and infrastructure                
  Benjamin Helmich-Paris : MC-RPA, TRAH-(SCF,CASSCF), AVAS, COSX integrals, SCF dyn. polar., MC-PDFT, srDFT 
  Lee Huntington         : MR-EOM, pCC                                   
  Robert Izsak           : Overlap fitted RIJCOSX, COSX-SCS-MP3, EOM     
  Riya Kayal             : Wick's Theorem for AUTO-CI, AUTO-CI UHF-CCSDT 
  Emily Kempfer          : AUTO-CI RHF CISDT and CCSDT, approximate NEVPT4
  Christian Kollmar      : KDIIS, OOCD, Brueckner-CCSD(T), CCSD density, CASPT2, CASPT2-K, improved NEVPT2 
  Axel Koslowski         : Symmetry handling                             
  Simone Kossmann        : meta-GGA functionals, TD-DFT gradient, OOMP2, (MP2 Hessian; deprecated post 5.0) 
  Lucas Lang             : DCDCAS, Hyperfine gauge corrections, ICE-SOC+SSC
  Marvin Lechner         : AUTO-CI (C++ implementation), FIC-MRCC        
  Spencer Leger          : CASSCF response                               
  Dagmar Lenk            : GEPOL surface, SMD, ORCA-2-JSON               
  Dimitrios Liakos       : Extrapolation schemes; Compound Job, Property file
  Dimitrios Manganas     : Further ROCIS development; embedding schemes. LFT, Crystal Embedding 
  Dimitrios Pantazis     : SARC Basis sets                               
  Anastasios Papadopoulos: AUTO-CI, single reference methods and gradients 
  Taras Petrenko         : pre 6.0 DFT Hessian and TD-DFT gradient,  ECA, NRVS 
  Petra Pikulova         : Analytic Raman intensities                    
  Peter Pinski           : DLPNO-MP2, DLPNO-MP2 Gradient                 
  Shashank Vittal Rao    : ES-AILFT, MagRelax                            
  Christoph Reimann      : Effective Core Potentials                     
  Marius Retegan         : Local ZFS, SOC                                
  Christoph Riplinger    : Optimizer, TS searches, QM/MM, DLPNO-CCSD(T), (RO)-DLPNO pert. Triples 
  Michael Roemelt        : Original ROCIS implementation, recursive CI coupling coefficients
  Masaaki Saitow         : Open-shell DLPNO-CCSD energy and density      
  Barbara Sandhoefer     : DKH picture change effects                    
  Yorick L. A. Schmerwitz: GMF and freeze-and-release deltaSCF, NEB S-IDPP initial path                    
  Kantharuban Sivalingam : CASSCF convergence/infrastructure, NEVPT2, NEVPT3, NEVPT4(SD), FIC-MRCI and CEPA variants
  Bernardo de Souza      : ESD, SOC TD-DFT                               
  Georgi L. Stoychev     : AutoAux, RI-MP2 NMR, DLPNO-MP2 response, X2C  
  Van Anh Tran           : RI-MP2 g-tensors                              
  Willem Van den Heuvel  : Paramagnetic NMR                              
  Zikuan Wang            : NOTCH, Electric field optimization            
  Frank Wennmohs         : Technical directorship and infrastructure     
  Hang Xu                : AUTO-CI-Response properties                   
                                                                         
[FACCTs GmbH]                                                            
  Markus Bursch, Nicolas Foglia, Miquel Garcia-Rates, Ingolf Harden, Hagen Neugebauer, Anastasios Papadopoulos, 
  Christoph Riplinger, Bernardo de Souza, Georgi L. Stoychev                                                    
                                                                 
  APM, various basis sets, CI-OPT, improved COSX, DLPNO-Multilevel,           
  DOCKER, DRACO, updates on ESD, Fragmentator, GOAT, IRC, LR-CPCM, L-BFGS, MBIS, meta-GGA TD-DFT gradient, ML-optimized integration grids, 
  MM, NACMEs, nearIR, NEB, NEB-TS, NL-DFT gradient (VV10), 2- and 3-layer-ONIOM, interface openCOSMO-RS, QMMM,   
  Crystal-QMMM, RESP, rigid body optimization, SF, symmetry and pop. for TD-DFT, various functionals, SOLVATOR                                   
                                                                         
[Other institutions]                                                     
  V. Asgeirsson          : NEB                                           
  Christoph Bannwarth    : sTDA-DFT, sTD-DFT, PBEh-3c, B97-3c, D3        
  Giovanni Bistoni       : ETS/NOCV, ADLD/ADEX, COVALED                  
  Martin Brehm           : Molecular dynamics                            
  Ronald Cardenas        : ETS/NOCV                                      
  Martina Colucci        : COVALED                                       
  Sebastian Ehlert       : rSCAN, r2SCAN, r2SCAN-3c, D4, dhf basis sets  
  Marvin Friede          : D4 for Fr, Ra, Ac-Lr                          
  Lars Goerigk           : TD-DFT with DH, B97 family of functionals     
  Stefan Grimme          : VdW corrections, initial TS optimization, DFT functionals, gCP, sTDA/sTD-DF 
  Waldemar Hujo          : DFT-NL                                        
  H. Jonsson             : NEB                                           
  Holger Kruse           : gCP                                           
  Marcel Mueller         : wB97X-3c, vDZP basis set                      
  Hagen Neugebauer       : wr2SCAN, Native XTB                           
  Gianluca Regni         : ADLD/ADEX                                     
  Tobias Risthaus        : pre 6.0 range-separated hybrid DFT and stability analysis
  Lukas Wittmann         : regularized MP2, r2SCAN double-hybrids, wr2SCAN        
                                                                         
We gratefully acknowledge several colleagues who have allowed us to      
interface, adapt or use parts of their codes:                            
  Ed Valeev, F. Pavosevic, A. Kumar             : LibInt (2-el integral package), F12 methods 
  Garnet Chan, S. Sharma, J. Yang, R. Olivares  : DMRG                   
  Ulf Ekstrom                                   : XCFun DFT Library      
  Mihaly Kallay                                 : mrcc  (arbitrary order and MRCC methods)
  Frank Weinhold                                : gennbo (NPA and NBO analysis)           
  Simon Mueller                                 : openCOSMO-RS                            
  Christopher J. Cramer and Donald G. Truhlar   : smd solvation model                     
  S Lehtola, MJT Oliveira, MAL Marques          : LibXC Library                           
  Liviu Ungur et al                             : ANISO software                          


 Your calculation uses the libint2 library for the computation of 2-el integrals
 For citations please refer to: http://libint.valeyev.net

 Your ORCA version has been built with support for libXC version: 7.0.0
 For citations please refer to: https://libxc.gitlab.io

 This ORCA versions uses:
   CBLAS   interface :  Fast vector & matrix operations
   LAPACKE interface :  Fast linear algebra routines
   SCALAPACK package :  Parallel linear algebra routines
   Shared memory     :  Shared parallel matrices
   BLAS/LAPACK       :  OpenBLAS 0.3.29  USE64BITINT DYNAMIC_ARCH NO_AFFINITY Haswell SINGLE_THREADED
        Core in use  :  Haswell
   Copyright (c) 2011-2014, The OpenBLAS Project


  ***********************************
  * Starting time: Thu Aug 14 10:33:14 2025
  * Host name:     CHEMLAB02
  * Process ID:    1554407
  * Working dir.:  /home/vivek/mm-project/vivek/xtb-goat/d
  ***********************************



***************************************
The coordinates will be read from file: d-input-coordinates.xyz
***************************************


Your calculation utilizes the semiempirical GFN2-xTB method
Please cite in your paper:
Bannwarth, C.; Ehlert S.; Grimme, S. J. Chem. Theory Comput. 2019, 15, 1652.
   

================================================================================

================================================================================
                                        WARNINGS
                       Please study these warnings very carefully!
================================================================================


================================================================================
 STARTING AUTOMATIC FRAGMENTATION: 
================================================================================

WARNING: Geometry Optimization
  ===> : Switching off AutoStart
         For restart on a previous wavefunction, please use MOREAD

WARNING: Found dipole moment calculation with XTB calculation
  ===> : Switching off dipole moment calculation


================================================================================
                                       INPUT FILE
================================================================================
NAME = d.inp
|  1> ! xtb goat
|  2> 
|  3> * xyzfile 0 1 d-input-coordinates.xyz
|  4> 
|  5>                          ****END OF INPUT****
================================================================================

                       *****************************
                       * Geometry Optimization Run *
                       *****************************


                       *********************************
                       *              GOAT             *
                       * Global Optimization Algorithm *
                       *********************************

Geometry optimization settings:
Update method            Update   .... BFGS
Choice of coordinates    CoordSys .... (2022) Redundant Internals
Initial Hessian          InHess   .... Almloef's Model
Max. no of cycles        MaxIter  .... 50

Convergence Tolerances:
Energy Change            TolE     ....  5.0000e-06 Eh
Max. Gradient            TolMAXG  ....  3.0000e-04 Eh/bohr
RMS Gradient             TolRMSG  ....  1.0000e-04 Eh/bohr
Max. Displacement        TolMAXD  ....  4.0000e-03 bohr
RMS Displacement         TolRMSD  ....  2.0000e-03 bohr
Strict Convergence                .... True

------------------------------------------------------------------------------
                        ORCA OPTIMIZATION COORDINATE SETUP
------------------------------------------------------------------------------

The optimization will be done in redundant internal coordinates (2022)
Making redundant internal coordinates   ...  (2022 redundants) done
Evaluating the initial hessian          ...  (Almloef) done
Evaluating the coordinates              ...  done
Calculating the B-matrix                .... done
Calculating the G-matrix                .... done
The number of degrees of freedom        ....   66

    -----------------------------------------------------------------
                    Redundant Internal Coordinates


    -----------------------------------------------------------------
         Definition                    Initial Value    Approx d2E/dq
    -----------------------------------------------------------------
      1. B(C   1,C   0)                  1.5004         0.416546   
      2. B(O   4,C   0)                  1.3474         0.654507   
      3. B(C   5,C   1)                  1.5277         0.376783   
      4. B(H   6,C   1)                  1.0966         0.351487   
      5. B(H   7,C   1)                  1.0956         0.352751   
      6. B(C   8,C   5)                  1.5376         0.363224   
      7. B(C   8,O   2)                  1.2196         1.046375   
      8. B(O   9,C   0)                  1.2186         1.050173   
      9. B(N  10,C   5)                  1.5003         0.373144   
     10. B(N  10,H   3)                  1.7980         0.023935   
     11. B(O  11,C   8)                  1.3601         0.624663   
     12. B(O  11,H   3)                  0.9910         0.463905   
     13. B(H  12,N  10)                  1.0288         0.403823   
     14. B(H  12,O   4)                  2.4242         0.010000   
     15. B(H  13,O   4)                  0.9833         0.477333   
     16. B(H  14,C   5)                  1.0970         0.351012   
     17. B(H  15,N  10)                  1.0262         0.407678   
     18. A(C   1,C   0,O   9)          126.1825         0.441387   
     19. A(C   1,C   0,O   4)          113.4197         0.405623   
     20. A(O   4,C   0,O   9)          120.2270         0.476125   
     21. A(C   5,C   1,H   7)          112.3602         0.323677   
     22. A(C   0,C   1,H   6)          106.4484         0.328872   
     23. A(H   6,C   1,H   7)          106.6282         0.288802   
     24. A(C   5,C   1,H   6)          110.4859         0.323486   
     25. A(C   0,C   1,C   5)          111.8285         0.370741   
     26. A(C   0,C   1,H   7)          108.7870         0.329067   
     27. A(C   0,O   4,H  13)          103.6081         0.368127   
     28. A(C   8,C   5,N  10)          108.0520         0.359298   
     29. A(C   1,C   5,N  10)          112.6250         0.361550   
     30. A(N  10,C   5,H  14)          107.4427         0.320976   
     31. A(C   8,C   5,H  14)          105.6912         0.321478   
     32. A(C   1,C   5,H  14)          111.5946         0.323415   
     33. A(C   1,C   5,C   8)          111.0998         0.362140   
     34. A(C   5,C   8,O  11)          110.9442         0.392732   
     35. A(O   2,C   8,O  11)          123.3175         0.471743   
     36. A(O   2,C   8,C   5)          125.7218         0.430350   
     37. A(H  12,N  10,H  15)          103.3422         0.297107   
     38. A(C   5,N  10,H  15)          108.5318         0.326171   
     39. A(C   5,N  10,H  12)          106.2870         0.325662   
     40. A(H   3,O  11,C   8)          105.8027         0.363416   
     41. D(H   6,C   1,C   0,O   9)    -16.5978         0.012837   
     42. D(C   5,C   1,C   0,O   9)   -137.3516         0.012837   
     43. D(H   7,C   1,C   0,O   4)    -77.2622         0.012837   
     44. D(C   5,C   1,C   0,O   4)     47.4274         0.012837   
     45. D(H   6,C   1,C   0,O   4)    168.1812         0.012837   
     46. D(H  13,O   4,C   0,O   9)      1.2173         0.035002   
     47. D(H  13,O   4,C   0,C   1)    176.7536         0.035002   
     48. D(N  10,C   5,C   1,H   7)     32.9173         0.011325   
     49. D(N  10,C   5,C   1,H   6)    151.8643         0.011325   
     50. D(N  10,C   5,C   1,C   0)    -89.7595         0.011325   
     51. D(C   8,C   5,C   1,H   7)    -88.4591         0.011325   
     52. D(C   8,C   5,C   1,H   6)     30.4879         0.011325   
     53. D(C   8,C   5,C   1,C   0)    148.8641         0.011325   
     54. D(O   2,C   8,C   5,N  10)   -166.5991         0.010000   
     55. D(O   2,C   8,C   5,C   1)    -42.5811         0.010000   
     56. D(O  11,C   8,C   5,N  10)     14.8413         0.010000   
     57. D(O  11,C   8,C   5,C   1)    138.8593         0.010000   
     58. D(O   2,C   8,C   5,H  14)     78.6273         0.010000   
     59. D(H  15,N  10,C   5,H  14)   -164.7924         0.012765   
     60. D(H  15,N  10,C   5,C   8)     81.5938         0.012765   
     61. D(H  15,N  10,C   5,C   1)    -41.5016         0.012765   
     62. D(H  12,N  10,C   5,H  14)    -54.2131         0.012765   
     63. D(H  12,N  10,C   5,C   8)   -167.8269         0.012765   
     64. D(H  12,N  10,C   5,C   1)     69.0777         0.012765   
     65. D(H   3,O  11,C   8,C   5)     -0.5981         0.028660   
     66. D(H   3,O  11,C   8,O   2)   -179.1987         0.028660   
    -----------------------------------------------------------------

Number of atoms                         .... 16
Number of degrees of freedom            .... 66


         *************************************************************
         *                GEOMETRY OPTIMIZATION CYCLE   1            *
         *************************************************************
---------------------------------
CARTESIAN COORDINATES (ANGSTROEM)
---------------------------------
  C    -5.336391    2.178883    0.035431
  C    -4.058632    2.915722    0.310179
  O    -1.672488    3.769824   -1.222329
  H    -0.747012    1.715506    0.803567
  O    -5.384435    0.959114    0.605710
  C    -2.833001    2.034565    0.075291
  H    -4.046217    3.778687   -0.366317
  H    -4.094624    3.316646    1.329165
  C    -1.632940    2.870602   -0.399324
  O    -6.305945    2.616875   -0.558896
  N    -2.418336    1.282727    1.305630
  O    -0.484627    2.457170    0.200850
  H    -3.154157    0.584919    1.479048
  H    -6.285519    0.634812    0.382731
  H    -3.012068    1.296571   -0.716300
  H    -2.493417    1.911700    2.113023

----------------------------
CARTESIAN COORDINATES (A.U.)
----------------------------
  NO LB    ZA    FRAG    MASS        X           Y           Z
   0 C   6.0000    1    12.011  -10.084318    4.117492    0.066955
   1 C   6.0000    1    12.011   -7.669703    5.509916    0.586153
   2 O   8.0000    1    15.999   -3.160544    7.123935   -2.309867
   3 H   1.0000    1     1.008   -1.411648    3.241837    1.518522
   4 O   8.0000    1    15.999  -10.175108    1.812463    1.144626
   5 C   6.0000    1    12.011   -5.353596    3.844771    0.142279
   6 H   1.0000    1     1.008   -7.646242    7.140684   -0.692239
   7 H   1.0000    1     1.008   -7.737718    6.267553    2.511758
   8 C   6.0000    1    12.011   -3.085809    5.424652   -0.754613
   9 O   8.0000    1    15.999  -11.916509    4.945177   -1.056160
  10 N   7.0000    1    14.007   -4.569993    2.424003    2.467283
  11 O   8.0000    1    15.999   -0.915812    4.643378    0.379551
  12 H   1.0000    1     1.008   -5.960493    1.105337    2.794996
  13 H   1.0000    1     1.008  -11.877910    1.199621    0.723257
  14 H   1.0000    1     1.008   -5.691984    2.450164   -1.353611
  15 H   1.0000    1     1.008   -4.711875    3.612589    3.993035

      -----------------------------------------------------------      
     |                   =====================                   |     
     |                           x T B                           |     
     |                   =====================                   |     
     |                         S. Grimme                         |     
     |          Mulliken Center for Theoretical Chemistry        |     
     |                    University of Bonn                     |     
      -----------------------------------------------------------      

   * xtb version 6.7.1 (edcfbbe) compiled by 'albert@albert-system' on 2024-07-22

   xtb is free software: you can redistribute it and/or modify it under
   the terms of the GNU Lesser General Public License as published by
   the Free Software Foundation, either version 3 of the License, or
   (at your option) any later version.
   
   xtb is distributed in the hope that it will be useful,
   but WITHOUT ANY WARRANTY; without even the implied warranty of
   MERCHANTABILITY or FITNESS FOR A PARTICULAR PURPOSE.  See the
   GNU Lesser General Public License for more details.
   
   Cite this work as:
   * C. Bannwarth, E. Caldeweyher, S. Ehlert, A. Hansen, P. Pracht,
     J. Seibert, S. Spicher, S. Grimme, WIREs Comput. Mol. Sci., 2020, 11,
     e01493. DOI: 10.1002/wcms.1493
   
   for GFN2-xTB:
   * C. Bannwarth, S. Ehlert and S. Grimme., J. Chem. Theory Comput., 2019,
     15, 1652-1671. DOI: 10.1021/acs.jctc.8b01176
   for GFN1-xTB:
   * S. Grimme, C. Bannwarth, P. Shushkov, J. Chem. Theory Comput., 2017,
     13, 1989-2009. DOI: 10.1021/acs.jctc.7b00118
   for GFN0-xTB:
   * P. Pracht, E. Caldeweyher, S. Ehlert, S. Grimme, ChemRxiv, 2019, preprint.
     DOI: 10.26434/chemrxiv.8326202.v1
   for GFN-FF:
   * S. Spicher and S. Grimme, Angew. Chem. Int. Ed., 2020, 59, 15665-15673.
     DOI: 10.1002/anie.202004239
   
   for ALPB and GBSA implicit solvation:
   * S. Ehlert, M. Stahn, S. Spicher, S. Grimme, J. Chem. Theory Comput.,
     2021, 17, 4250-4261. DOI: 10.1021/acs.jctc.1c00471
   
   for ddCOSMO and CPCM-X implicit solvation:
   * M. Stahn, S. Ehlert, S. Grimme, J. Phys. Chem. A,
     2023, XX, XXXX-XXXX. DOI: 10.1021/acs.jpca.3c04382
   
   for DFT-D4:
   * E. Caldeweyher, C. Bannwarth and S. Grimme, J. Chem. Phys., 2017,
     147, 034112. DOI: 10.1063/1.4993215
   * E. Caldeweyher, S. Ehlert, A. Hansen, H. Neugebauer, S. Spicher,
     C. Bannwarth and S. Grimme, J. Chem. Phys., 2019, 150, 154122.
     DOI: 10.1063/1.5090222
   * E. Caldeweyher, J.-M. Mewes, S. Ehlert and S. Grimme, Phys. Chem. Chem. Phys.
     2020, 22, 8499-8512. DOI: 10.1039/D0CP00502A
   
   for sTDA-xTB:
   * S. Grimme and C. Bannwarth, J. Chem. Phys., 2016, 145, 054103.
     DOI: 10.1063/1.4959605
   
   in the mass-spec context:
   * V. Asgeirsson, C. Bauer and S. Grimme, Chem. Sci., 2017, 8, 4879.
     DOI: 10.1039/c7sc00601b
   * J. Koopman and S. Grimme, ACS Omega 2019, 4, 12, 15120-15133.
     DOI: 10.1021/acsomega.9b02011
   
   for metadynamics refer to:
   * S. Grimme, J. Chem. Theory Comput., 2019, 155, 2847-2862
     DOI: 10.1021/acs.jctc.9b00143
   
   for SPH calculations refer to:
   * S. Spicher and S. Grimme, J. Chem. Theory Comput., 2021, 17, 1701-1714
     DOI: 10.1021/acs.jctc.0c01306
   
   for ONIOM refer to:
   * C. Plett, A. Katbashev, S. Ehlert, S. Grimme, M. Bursch,
     Phys. Chem. Chem. Phys., 2023, 25, 17860-17868. DOI: 10.1039/D3CP02178E
   
   for DIPRO refer to:
   * J. Kohn, N. Gildemeister, S. Grimme, D. Fazzi, A. Hansen,
     J. Chem. Phys., 2023, just accepted.
   
   for PTB refer to:
   * S. Grimme, M. Mueller, A. Hansen, J. Chem. Phys., 2023, 158, 124111.
     DOI: 10.1063/5.0137838
   
   with help from (in alphabetical order)
   P. Atkinson, C. Bannwarth, F. Bohle, G. Brandenburg, E. Caldeweyher
   M. Checinski, S. Dohm, S. Ehlert, S. Ehrlich, I. Gerasimov, C. Hölzer
   A. Katbashev, J. Kohn, J. Koopman, C. Lavigne, S. Lehtola, F. März, M. Müller,
   F. Musil, H. Neugebauer, J. Pisarek, C. Plett, P. Pracht, F. Pultar,
   J. Seibert, P. Shushkov, S. Spicher, M. Stahn, M. Steiner, T. Strunk,
   J. Stückrath, T. Rose, and J. Unsleber
   
 * started run on 2025/08/14 at 10:33:14.990     
   ID    Z sym.   atoms
    1    6 C      1, 2, 6, 9
    2    8 O      3, 5, 10, 12
    3    1 H      4, 7, 8, 13-16
    4    7 N      11

           -------------------------------------------------
          |                Calculation Setup                |
           -------------------------------------------------

          program call               : otool_xtb d_XTB.xyz --grad -c 0 -u 0 -P 1 --namespace d --input d_XTB.input.tmp --acc 0.200000
          calculation namespace      : d
          coordinate file            : d_XTB.xyz
          omp threads                :                     1


           -------------------------------------------------
          |                 G F N 2 - x T B                 |
           -------------------------------------------------

        Reference                      10.1021/acs.jctc.8b01176
      * Hamiltonian:
        H0-scaling (s, p, d)           1.850000    2.230000    2.230000
        zeta-weighting                 0.500000
      * Dispersion:
        s8                             2.700000
        a1                             0.520000
        a2                             5.000000
        s9                             5.000000
      * Repulsion:
        kExp                           1.500000    1.000000
        rExp                           1.000000
      * Coulomb:
        alpha                          2.000000
        third order                    shell-resolved
        anisotropic                    true
        a3                             3.000000
        a5                             4.000000
        cn-shift                       1.200000
        cn-exp                         4.000000
        max-rad                        5.000000


          ...................................................
          :                      SETUP                      :
          :.................................................:
          :  # basis functions                  43          :
          :  # atomic orbitals                  43          :
          :  # shells                           25          :
          :  # electrons                        52          :
          :  max. iterations                   250          :
          :  Hamiltonian                  GFN2-xTB          :
          :  restarted?                      false          :
          :  GBSA solvation                  false          :
          :  PC potential                    false          :
          :  electronic temp.          300.0000000     K    :
          :  accuracy                    0.2000000          :
          :  -> integral cutoff          0.3198970E+02      :
          :  -> integral neglect         0.2000000E-08      :
          :  -> SCF convergence          0.2000000E-06 Eh   :
          :  -> wf. convergence          0.2000000E-04 e    :
          :  Broyden damping             0.4000000          :
          :  net charge                          0          :
          :  unpaired electrons                  0          :
          ...................................................

 iter      E             dE          RMSdq      gap      omega  full diag
   1    -31.4826634 -0.314827E+02  0.489E+00    4.21       0.0  T
   2    -31.5565868 -0.739234E-01  0.244E+00    4.12       1.0  T
   3    -31.5620252 -0.543841E-02  0.145E+00    4.44       1.0  T
   4    -31.5660513 -0.402609E-02  0.208E-01    4.15       1.0  T
   5    -31.5663561 -0.304746E-03  0.795E-02    4.17       1.0  T
   6    -31.5663685 -0.124131E-04  0.352E-02    4.18       1.0  T
   7    -31.5663712 -0.268902E-05  0.893E-03    4.18       2.8  T
   8    -31.5663714 -0.217246E-06  0.411E-03    4.18       6.1  T
   9    -31.5663714 -0.479991E-07  0.170E-03    4.18      14.7  T
  10    -31.5663714 -0.119624E-07  0.615E-04    4.18      40.7  T
  11    -31.5663714 -0.759222E-09  0.303E-04    4.18      82.6  T
  12    -31.5663714 -0.297049E-09  0.837E-05    4.18     298.7  T
  13    -31.5663714 -0.181437E-10  0.226E-05    4.18    1106.3  T

   *** convergence criteria satisfied after 13 iterations ***

         #    Occupation            Energy/Eh            Energy/eV
      -------------------------------------------------------------
         1        2.0000           -0.7714596             -20.9925
       ...           ...                  ...                  ...
        20        2.0000           -0.5039754             -13.7139
        21        2.0000           -0.4977372             -13.5441
        22        2.0000           -0.4929014             -13.4125
        23        2.0000           -0.4747101             -12.9175
        24        2.0000           -0.4492003             -12.2234
        25        2.0000           -0.4368460             -11.8872
        26        2.0000           -0.4201781             -11.4336 (HOMO)
        27                         -0.2665014              -7.2519 (LUMO)
        28                         -0.2521908              -6.8625
        29                         -0.0303618              -0.8262
        30                          0.0168995               0.4599
        31                          0.0355515               0.9674
       ...                                ...                  ...
        43                          0.5694744              15.4962
      -------------------------------------------------------------
                  HL-Gap            0.1536766 Eh            4.1818 eV
             Fermi-level           -0.3433398 Eh           -9.3428 eV

 SCC (total)                   0 d,  0 h,  0 min,  0.084 sec
 SCC setup                      ...        0 min,  0.007 sec (  7.939%)
 Dispersion                     ...        0 min,  0.001 sec (  1.417%)
 classical contributions        ...        0 min,  0.000 sec (  0.053%)
 integral evaluation            ...        0 min,  0.007 sec (  7.826%)
 iterations                     ...        0 min,  0.056 sec ( 67.159%)
 molecular gradient             ...        0 min,  0.011 sec ( 13.381%)
 printout                       ...        0 min,  0.002 sec (  2.180%)

         :::::::::::::::::::::::::::::::::::::::::::::::::::::
         ::                     SUMMARY                     ::
         :::::::::::::::::::::::::::::::::::::::::::::::::::::
         :: total energy             -31.318437898688 Eh    ::
         :: gradient norm              0.083596087430 Eh/a0 ::
         :: HOMO-LUMO gap              4.181754492583 eV    ::
         ::.................................................::
         :: SCC energy               -31.566344550566 Eh    ::
         :: -> isotropic ES            0.103931753136 Eh    ::
         :: -> anisotropic ES          0.001130611056 Eh    ::
         :: -> anisotropic XC          0.003682866392 Eh    ::
         :: -> dispersion             -0.010638348996 Eh    ::
         :: repulsion energy           0.247906651878 Eh    ::
         :: add. restraining           0.000000000000 Eh    ::
         :: total charge               0.000000000000 e     ::
         :::::::::::::::::::::::::::::::::::::::::::::::::::::


Property printout bound to 'properties.out'

           -------------------------------------------------
          | TOTAL ENERGY              -31.318437898688 Eh   |
          | GRADIENT NORM               0.083596087430 Eh/α |
          | HOMO-LUMO GAP               4.181754492583 eV   |
           -------------------------------------------------

------------------------------------------------------------------------
 * finished run on 2025/08/14 at 10:33:15.153     
------------------------------------------------------------------------
 total:
 * wall-time:     0 d,  0 h,  0 min,  0.163 sec
 *  cpu-time:     0 d,  0 h,  0 min,  0.058 sec
 * ratio c/w:     0.354 speedup
 SCF:
 * wall-time:     0 d,  0 h,  0 min,  0.085 sec
 *  cpu-time:     0 d,  0 h,  0 min,  0.034 sec
 * ratio c/w:     0.395 speedup


-------------------------   --------------------
FINAL SINGLE POINT ENERGY       -31.318437898690
-------------------------   --------------------


-------------
DIPOLE MOMENT
-------------
                                X             Y             Z
Total Dipole Moment    :     -0.77800      -1.60600       1.72800
                        -----------------------------------------
Magnitude (a.u.)       :      2.48405
Magnitude (Debye)      :      6.31395


------------------
CARTESIAN GRADIENT
------------------

   1   C   :    0.027298648   -0.008948318    0.002282110
   2   C   :    0.005106479   -0.007742217    0.012946586
   3   O   :    0.002044159    0.030806561   -0.029124522
   4   H   :   -0.003727184   -0.003217066    0.002128723
   5   O   :    0.012384374   -0.002719181    0.008797723
   6   C   :   -0.008052563    0.003730495   -0.018618907
   7   H   :   -0.002819721    0.001289756    0.000057759
   8   H   :   -0.001741440    0.003533767    0.000755353
   9   C   :   -0.024574714   -0.017519407    0.011199551
  10   O   :   -0.025831046    0.008788572   -0.011447899
  11   N   :    0.021291633   -0.005113161    0.008581860
  12   O   :    0.020791829   -0.006527594    0.011542619
  13   H   :   -0.009927058   -0.001641843    0.002731502
  14   H   :   -0.009539044    0.004977425   -0.005633778
  15   H   :    0.001694088   -0.001227162   -0.001421030
  16   H   :   -0.004398440    0.001529372    0.005222351

Difference to translation invariance:
           :    0.0000000000    0.0000000000    0.0000000000

Difference to rotation invariance:
           :   -0.0000000033    0.0000001202    0.0000000973

Norm of the Cartesian gradient     ...    0.0835960874
RMS gradient                       ...    0.0120660559
MAX gradient                       ...    0.0308065607
------------------------------------------------------------------------------
                         ORCA GEOMETRY RELAXATION STEP
------------------------------------------------------------------------------

Reading the OPT-File                    .... done
Getting information on internals        .... done
Copying old internal coords+grads       .... done
Making the new internal coordinates     .... (2022 redundants) done
Validating the new internal coordinates .... (2022 redundants) done
Calculating the B-matrix                .... done
Calculating the G,G- and P matrices     .... done
Transforming gradient to internals      .... done
Projecting the internal gradient        .... done
Number of atoms                         ....  16
Number of internal coordinates          ....  66
Current Energy                          ....   -31.318437899 Eh
Current gradient norm                   ....     0.083596087 Eh/bohr
Maximum allowed component of the step   ....  0.300
Current trust radius                    ....  0.300
Evaluating the initial hessian          ....  (Almloef) done
Projecting the Hessian                  .... done
Forming the augmented Hessian           .... done
Diagonalizing the augmented Hessian     .... done
Last element of RFO vector              ....  0.964906208
Lowest eigenvalues of augmented Hessian:
 -0.008824696  0.010668921  0.011031611  0.012737520  0.012842806
Length of the computed step             ....  0.272145377
The final length of the internal step   ....  0.272145377
Converting the step to Cartesian space:
 Initial RMS(Int)=    0.0334987802
Transforming coordinates:
 Iter   0:  RMS(Cart)=    0.0491801771 RMS(Int)=    0.7648533848
 Iter   5:  RMS(Cart)=    0.0000000603 RMS(Int)=    0.0000000463
done
Storing new coordinates                 .... done

                                .--------------------.
          ----------------------|Geometry convergence|-------------------------
          Item                value                   Tolerance       Converged
          ---------------------------------------------------------------------
          RMS gradient        0.0082842996            0.0001000000      NO
          MAX gradient        0.0423002449            0.0003000000      NO
          RMS step            0.0334987802            0.0020000000      NO
          MAX step            0.0748833643            0.0040000000      NO
          -------------------------------------------------------------------------
          ........................................................
          Max(Bonds)      0.0322      Max(Angles)    2.48
          Max(Dihed)        4.29      Max(Improp)    0.00
          ---------------------------------------------------------------------

    ---------------------------------------------------------------------------
                         Redundant Internal Coordinates
                            (Angstroem and degrees)

        Definition                    Value    dE/dq     Step     New-Value
    ----------------------------------------------------------------------------
     1. B(C   1,C   0)                1.5004 -0.002856  0.0049    1.5052   
     2. B(O   4,C   0)                1.3474 -0.001058  0.0006    1.3479   
     3. B(C   5,C   1)                1.5277 -0.002431  0.0048    1.5325   
     4. B(H   6,C   1)                1.0966  0.000947 -0.0014    1.0952   
     5. B(H   7,C   1)                1.0956  0.002053 -0.0030    1.0926   
     6. B(C   8,C   5)                1.5376  0.001531 -0.0012    1.5364   
     7. B(C   8,O   2)                1.2196  0.042300 -0.0212    1.1984   
     8. B(O   9,C   0)                1.2186  0.029293 -0.0146    1.2040   
     9. B(N  10,C   5)                1.5003  0.018963 -0.0250    1.4753   
    10. B(N  10,H   3)                1.7980 -0.002714  0.0322    1.8302   
    11. B(O  11,C   8)                1.3601  0.025000 -0.0205    1.3395   
    12. B(O  11,H   3)                0.9910  0.003071 -0.0039    0.9871   
    13. B(H  12,N  10)                1.0288  0.008197 -0.0114    1.0174   
    14. B(H  12,O   4)                2.4242 -0.000968 -0.0112    2.4130   
    15. B(H  13,O   4)                0.9833  0.008378 -0.0091    0.9742   
    16. B(H  14,C   5)                1.0970  0.001574 -0.0023    1.0946   
    17. B(H  15,N  10)                1.0262  0.005368 -0.0068    1.0194   
    18. A(C   1,C   0,O   9)          126.18  0.002010   -0.22    125.96   
    19. A(C   1,C   0,O   4)          113.42  0.002911    0.10    113.52   
    20. A(O   4,C   0,O   9)          120.23 -0.005258    0.66    120.89   
    21. A(C   5,C   1,H   7)          112.36  0.003911   -1.28    111.08   
    22. A(C   0,C   1,H   6)          106.45 -0.004233    1.09    107.54   
    23. A(H   6,C   1,H   7)          106.63 -0.002574    0.61    107.24   
    24. A(C   5,C   1,H   6)          110.49  0.001764   -0.21    110.28   
    25. A(C   0,C   1,C   5)          111.83 -0.000497    0.54    112.36   
    26. A(C   0,C   1,H   7)          108.79  0.001101   -0.62    108.16   
    27. A(C   0,O   4,H  13)          103.61 -0.016292    2.48    106.08   
    28. A(C   8,C   5,N  10)          108.05  0.003078   -0.39    107.66   
    29. A(C   1,C   5,N  10)          112.62 -0.006165    1.79    114.42   
    30. A(N  10,C   5,H  14)          107.44  0.000534   -0.30    107.14   
    31. A(C   8,C   5,H  14)          105.69 -0.001094   -0.12    105.57   
    32. A(C   1,C   5,H  14)          111.59  0.003186   -0.89    110.70   
    33. A(C   1,C   5,C   8)          111.10  0.000788   -0.20    110.90   
    34. A(C   5,C   8,O  11)          110.94 -0.007838    1.31    112.25   
    35. A(O   2,C   8,O  11)          123.32  0.000165   -0.16    123.16   
    36. A(O   2,C   8,C   5)          125.72  0.007669   -1.15    124.57   
    37. A(H  12,N  10,H  15)          103.34 -0.002433    1.64    104.98   
    38. A(C   5,N  10,H  15)          108.53  0.000283    0.37    108.90   
    39. A(C   5,N  10,H  12)          106.29 -0.003777    1.45    107.74   
    40. A(H   3,O  11,C   8)          105.80 -0.000912    0.30    106.10   
    41. D(H   6,C   1,C   0,O   9)    -16.60 -0.002150    4.25    -12.35   
    42. D(C   5,C   1,C   0,O   9)   -137.35 -0.001304    3.49   -133.86   
    43. D(H   7,C   1,C   0,O   4)    -77.26 -0.001814   -2.33    -79.59   
    44. D(C   5,C   1,C   0,O   4)     47.43  0.003644   -4.04     43.38   
    45. D(H   6,C   1,C   0,O   4)    168.18  0.002798   -3.29    164.89   
    46. D(H  13,O   4,C   0,O   9)      1.22  0.001526   -2.70     -1.49   
    47. D(H  13,O   4,C   0,C   1)    176.75 -0.002740    4.29    181.04   
    48. D(N  10,C   5,C   1,H   7)     32.92 -0.000209    2.53     35.45   
    49. D(N  10,C   5,C   1,H   6)    151.86  0.000291    2.32    154.18   
    50. D(N  10,C   5,C   1,C   0)    -89.76 -0.004174    3.89    -85.87   
    51. D(C   8,C   5,C   1,H   7)    -88.46 -0.000407    1.92    -86.54   
    52. D(C   8,C   5,C   1,H   6)     30.49  0.000093    1.71     32.20   
    53. D(C   8,C   5,C   1,C   0)    148.86 -0.004372    3.28    152.14   
    54. D(O   2,C   8,C   5,N  10)   -166.60  0.001568    1.42   -165.18   
    55. D(O   2,C   8,C   5,C   1)    -42.58 -0.003546    3.27    -39.31   
    56. D(O  11,C   8,C   5,N  10)     14.84  0.001785    1.75     16.59   
    57. D(O  11,C   8,C   5,C   1)    138.86 -0.003329    3.59    142.45   
    58. D(O   2,C   8,C   5,H  14)     78.63  0.000074    2.00     80.63   
    59. D(H  15,N  10,C   5,H  14)   -164.79  0.002045   -0.54   -165.34   
    60. D(H  15,N  10,C   5,C   8)     81.59  0.001555   -0.07     81.53   
    61. D(H  15,N  10,C   5,C   1)    -41.50  0.002442   -0.71    -42.22   
    62. D(H  12,N  10,C   5,H  14)    -54.21 -0.002376    2.17    -52.04   
    63. D(H  12,N  10,C   5,C   8)   -167.83 -0.002867    2.65   -165.18   
    64. D(H  12,N  10,C   5,C   1)     69.08 -0.001979    2.00     71.08   
    65. D(H   3,O  11,C   8,C   5)     -0.60  0.000395   -0.65     -1.24   
    66. D(H   3,O  11,C   8,O   2)   -179.20  0.000474   -0.31   -179.51   
    ----------------------------------------------------------------------------

Geometry step timings:
Preparation and reading OPT file:      0.000 s ( 1.422 %)
Internal coordinates            :      0.000 s ( 1.763 %)
B/P matrices and projection     :      0.001 s (38.794 %)
Hessian update/contruction      :      0.000 s ( 9.386 %)
Making the step                 :      0.000 s (24.915 %)
Converting the step to Cartesian:      0.000 s ( 4.039 %)
Storing new data                :      0.000 s ( 1.138 %)
Checking convergence            :      0.000 s ( 1.479 %)
Final printing                  :      0.000 s (17.065 %)
Total time                      :      0.002 s

Time for energy+gradient        :      0.168 s
Time for complete geometry iter :      0.170 s

         *************************************************************
         *                GEOMETRY OPTIMIZATION CYCLE   2            *
         *************************************************************
---------------------------------
CARTESIAN COORDINATES (ANGSTROEM)
---------------------------------
  C    -5.360566    2.200044    0.067999
  C    -4.069268    2.941818    0.286911
  O    -1.676330    3.779153   -1.142753
  H    -0.733458    1.683291    0.774235
  O    -5.377909    0.977719    0.635917
  C    -2.841944    2.045416    0.090843
  H    -4.045136    3.778127   -0.419818
  H    -4.087820    3.368365    1.292648
  C    -1.627804    2.870307   -0.363106
  O    -6.295636    2.589909   -0.582604
  N    -2.443565    1.286036    1.291311
  O    -0.485498    2.435373    0.184905
  H    -3.143339    0.564135    1.447483
  H    -6.244316    0.590321    0.416248
  H    -3.017843    1.317667   -0.707708
  H    -2.509377    1.896641    2.104948

----------------------------
CARTESIAN COORDINATES (A.U.)
----------------------------
  NO LB    ZA    FRAG    MASS        X           Y           Z
   0 C   6.0000    1    12.011  -10.130002    4.157480    0.128500
   1 C   6.0000    1    12.011   -7.689802    5.559231    0.542183
   2 O   8.0000    1    15.999   -3.167805    7.141564   -2.159491
   3 H   1.0000    1     1.008   -1.386035    3.180959    1.463093
   4 O   8.0000    1    15.999  -10.162774    1.847621    1.201708
   5 C   6.0000    1    12.011   -5.370495    3.865277    0.171668
   6 H   1.0000    1     1.008   -7.644200    7.139625   -0.793340
   7 H   1.0000    1     1.008   -7.724861    6.365287    2.442751
   8 C   6.0000    1    12.011   -3.076104    5.424094   -0.686171
   9 O   8.0000    1    15.999  -11.897027    4.894219   -1.100962
  10 N   7.0000    1    14.007   -4.617668    2.430256    2.440223
  11 O   8.0000    1    15.999   -0.917459    4.602188    0.349419
  12 H   1.0000    1     1.008   -5.940050    1.066061    2.735346
  13 H   1.0000    1     1.008  -11.800048    1.115545    0.786594
  14 H   1.0000    1     1.008   -5.702896    2.490031   -1.337374
  15 H   1.0000    1     1.008   -4.742036    3.584133    3.977776

      -----------------------------------------------------------      
     |                   =====================                   |     
     |                           x T B                           |     
     |                   =====================                   |     
     |                         S. Grimme                         |     
     |          Mulliken Center for Theoretical Chemistry        |     
     |                    University of Bonn                     |     
      -----------------------------------------------------------      

   * xtb version 6.7.1 (edcfbbe) compiled by 'albert@albert-system' on 2024-07-22

   xtb is free software: you can redistribute it and/or modify it under
   the terms of the GNU Lesser General Public License as published by
   the Free Software Foundation, either version 3 of the License, or
   (at your option) any later version.
   
   xtb is distributed in the hope that it will be useful,
   but WITHOUT ANY WARRANTY; without even the implied warranty of
   MERCHANTABILITY or FITNESS FOR A PARTICULAR PURPOSE.  See the
   GNU Lesser General Public License for more details.
   
   Cite this work as:
   * C. Bannwarth, E. Caldeweyher, S. Ehlert, A. Hansen, P. Pracht,
     J. Seibert, S. Spicher, S. Grimme, WIREs Comput. Mol. Sci., 2020, 11,
     e01493. DOI: 10.1002/wcms.1493
   
   for GFN2-xTB:
   * C. Bannwarth, S. Ehlert and S. Grimme., J. Chem. Theory Comput., 2019,
     15, 1652-1671. DOI: 10.1021/acs.jctc.8b01176
   for GFN1-xTB:
   * S. Grimme, C. Bannwarth, P. Shushkov, J. Chem. Theory Comput., 2017,
     13, 1989-2009. DOI: 10.1021/acs.jctc.7b00118
   for GFN0-xTB:
   * P. Pracht, E. Caldeweyher, S. Ehlert, S. Grimme, ChemRxiv, 2019, preprint.
     DOI: 10.26434/chemrxiv.8326202.v1
   for GFN-FF:
   * S. Spicher and S. Grimme, Angew. Chem. Int. Ed., 2020, 59, 15665-15673.
     DOI: 10.1002/anie.202004239
   
   for ALPB and GBSA implicit solvation:
   * S. Ehlert, M. Stahn, S. Spicher, S. Grimme, J. Chem. Theory Comput.,
     2021, 17, 4250-4261. DOI: 10.1021/acs.jctc.1c00471
   
   for ddCOSMO and CPCM-X implicit solvation:
   * M. Stahn, S. Ehlert, S. Grimme, J. Phys. Chem. A,
     2023, XX, XXXX-XXXX. DOI: 10.1021/acs.jpca.3c04382
   
   for DFT-D4:
   * E. Caldeweyher, C. Bannwarth and S. Grimme, J. Chem. Phys., 2017,
     147, 034112. DOI: 10.1063/1.4993215
   * E. Caldeweyher, S. Ehlert, A. Hansen, H. Neugebauer, S. Spicher,
     C. Bannwarth and S. Grimme, J. Chem. Phys., 2019, 150, 154122.
     DOI: 10.1063/1.5090222
   * E. Caldeweyher, J.-M. Mewes, S. Ehlert and S. Grimme, Phys. Chem. Chem. Phys.
     2020, 22, 8499-8512. DOI: 10.1039/D0CP00502A
   
   for sTDA-xTB:
   * S. Grimme and C. Bannwarth, J. Chem. Phys., 2016, 145, 054103.
     DOI: 10.1063/1.4959605
   
   in the mass-spec context:
   * V. Asgeirsson, C. Bauer and S. Grimme, Chem. Sci., 2017, 8, 4879.
     DOI: 10.1039/c7sc00601b
   * J. Koopman and S. Grimme, ACS Omega 2019, 4, 12, 15120-15133.
     DOI: 10.1021/acsomega.9b02011
   
   for metadynamics refer to:
   * S. Grimme, J. Chem. Theory Comput., 2019, 155, 2847-2862
     DOI: 10.1021/acs.jctc.9b00143
   
   for SPH calculations refer to:
   * S. Spicher and S. Grimme, J. Chem. Theory Comput., 2021, 17, 1701-1714
     DOI: 10.1021/acs.jctc.0c01306
   
   for ONIOM refer to:
   * C. Plett, A. Katbashev, S. Ehlert, S. Grimme, M. Bursch,
     Phys. Chem. Chem. Phys., 2023, 25, 17860-17868. DOI: 10.1039/D3CP02178E
   
   for DIPRO refer to:
   * J. Kohn, N. Gildemeister, S. Grimme, D. Fazzi, A. Hansen,
     J. Chem. Phys., 2023, just accepted.
   
   for PTB refer to:
   * S. Grimme, M. Mueller, A. Hansen, J. Chem. Phys., 2023, 158, 124111.
     DOI: 10.1063/5.0137838
   
   with help from (in alphabetical order)
   P. Atkinson, C. Bannwarth, F. Bohle, G. Brandenburg, E. Caldeweyher
   M. Checinski, S. Dohm, S. Ehlert, S. Ehrlich, I. Gerasimov, C. Hölzer
   A. Katbashev, J. Kohn, J. Koopman, C. Lavigne, S. Lehtola, F. März, M. Müller,
   F. Musil, H. Neugebauer, J. Pisarek, C. Plett, P. Pracht, F. Pultar,
   J. Seibert, P. Shushkov, S. Spicher, M. Stahn, M. Steiner, T. Strunk,
   J. Stückrath, T. Rose, and J. Unsleber
   
 * started run on 2025/08/14 at 10:33:15.161     
   ID    Z sym.   atoms
    1    6 C      1, 2, 6, 9
    2    8 O      3, 5, 10, 12
    3    1 H      4, 7, 8, 13-16
    4    7 N      11

           -------------------------------------------------
          |                Calculation Setup                |
           -------------------------------------------------

          program call               : otool_xtb d_XTB.xyz --grad -c 0 -u 0 -P 1 --namespace d --input d_XTB.input.tmp --acc 0.200000
          calculation namespace      : d
          coordinate file            : d_XTB.xyz
          omp threads                :                     1


           -------------------------------------------------
          |                 G F N 2 - x T B                 |
           -------------------------------------------------

        Reference                      10.1021/acs.jctc.8b01176
      * Hamiltonian:
        H0-scaling (s, p, d)           1.850000    2.230000    2.230000
        zeta-weighting                 0.500000
      * Dispersion:
        s8                             2.700000
        a1                             0.520000
        a2                             5.000000
        s9                             5.000000
      * Repulsion:
        kExp                           1.500000    1.000000
        rExp                           1.000000
      * Coulomb:
        alpha                          2.000000
        third order                    shell-resolved
        anisotropic                    true
        a3                             3.000000
        a5                             4.000000
        cn-shift                       1.200000
        cn-exp                         4.000000
        max-rad                        5.000000

q/qsh data taken from xtbrestart
CAMM data taken from xtbrestart

          ...................................................
          :                      SETUP                      :
          :.................................................:
          :  # basis functions                  43          :
          :  # atomic orbitals                  43          :
          :  # shells                           25          :
          :  # electrons                        52          :
          :  max. iterations                   250          :
          :  Hamiltonian                  GFN2-xTB          :
          :  restarted?                       true          :
          :  GBSA solvation                  false          :
          :  PC potential                    false          :
          :  electronic temp.          300.0000000     K    :
          :  accuracy                    0.2000000          :
          :  -> integral cutoff          0.3198970E+02      :
          :  -> integral neglect         0.2000000E-08      :
          :  -> SCF convergence          0.2000000E-06 Eh   :
          :  -> wf. convergence          0.2000000E-04 e    :
          :  Broyden damping             0.4000000          :
          :  net charge                          0          :
          :  unpaired electrons                  0          :
          ...................................................

 iter      E             dE          RMSdq      gap      omega  full diag
   1    -31.5900062 -0.315900E+02  0.274E-01    4.25       0.0  T
   2    -31.5901356 -0.129379E-03  0.163E-01    4.23       1.0  T
   3    -31.5901356 -0.168958E-07  0.720E-02    4.25       1.0  T
   4    -31.5901537 -0.180985E-04  0.103E-02    4.26       2.4  T
   5    -31.5901541 -0.365975E-06  0.549E-03    4.25       4.6  T
   6    -31.5901541 -0.424307E-07  0.219E-03    4.25      11.4  T
   7    -31.5901541 -0.680408E-08  0.686E-04    4.25      36.4  T
   8    -31.5901541 -0.766942E-09  0.231E-04    4.25     108.2  T
   9    -31.5901541 -0.269246E-09  0.836E-05    4.25     298.9  T
  10    -31.5901541 -0.130740E-10  0.268E-05    4.25     934.1  T

   *** convergence criteria satisfied after 10 iterations ***

         #    Occupation            Energy/Eh            Energy/eV
      -------------------------------------------------------------
         1        2.0000           -0.7692547             -20.9325
       ...           ...                  ...                  ...
        20        2.0000           -0.5025983             -13.6764
        21        2.0000           -0.4960491             -13.4982
        22        2.0000           -0.4904474             -13.3458
        23        2.0000           -0.4759691             -12.9518
        24        2.0000           -0.4471887             -12.1686
        25        2.0000           -0.4354806             -11.8500
        26        2.0000           -0.4159071             -11.3174 (HOMO)
        27                         -0.2596027              -7.0641 (LUMO)
        28                         -0.2417461              -6.5782
        29                         -0.0088345              -0.2404
        30                          0.0257368               0.7003
        31                          0.0457191               1.2441
       ...                                ...                  ...
        43                          0.6382109              17.3666
      -------------------------------------------------------------
                  HL-Gap            0.1563044 Eh            4.2533 eV
             Fermi-level           -0.3377549 Eh           -9.1908 eV

 SCC (total)                   0 d,  0 h,  0 min,  0.024 sec
 SCC setup                      ...        0 min,  0.000 sec (  1.080%)
 Dispersion                     ...        0 min,  0.000 sec (  0.722%)
 classical contributions        ...        0 min,  0.000 sec (  0.147%)
 integral evaluation            ...        0 min,  0.003 sec ( 10.920%)
 iterations                     ...        0 min,  0.016 sec ( 66.236%)
 molecular gradient             ...        0 min,  0.005 sec ( 20.596%)
 printout                       ...        0 min,  0.000 sec (  0.201%)

         :::::::::::::::::::::::::::::::::::::::::::::::::::::
         ::                     SUMMARY                     ::
         :::::::::::::::::::::::::::::::::::::::::::::::::::::
         :: total energy             -31.324117659156 Eh    ::
         :: gradient norm              0.031727222427 Eh/a0 ::
         :: HOMO-LUMO gap              4.253259364633 eV    ::
         ::.................................................::
         :: SCC energy               -31.590127590056 Eh    ::
         :: -> isotropic ES            0.102881505635 Eh    ::
         :: -> anisotropic ES          0.000804494127 Eh    ::
         :: -> anisotropic XC          0.002878349486 Eh    ::
         :: -> dispersion             -0.010686026193 Eh    ::
         :: repulsion energy           0.266009930900 Eh    ::
         :: add. restraining           0.000000000000 Eh    ::
         :: total charge              -0.000000000000 e     ::
         :::::::::::::::::::::::::::::::::::::::::::::::::::::


Property printout bound to 'properties.out'

           -------------------------------------------------
          | TOTAL ENERGY              -31.324117659156 Eh   |
          | GRADIENT NORM               0.031727222427 Eh/α |
          | HOMO-LUMO GAP               4.253259364633 eV   |
           -------------------------------------------------

------------------------------------------------------------------------
 * finished run on 2025/08/14 at 10:33:15.195     
------------------------------------------------------------------------
 total:
 * wall-time:     0 d,  0 h,  0 min,  0.033 sec
 *  cpu-time:     0 d,  0 h,  0 min,  0.032 sec
 * ratio c/w:     0.959 speedup
 SCF:
 * wall-time:     0 d,  0 h,  0 min,  0.024 sec
 *  cpu-time:     0 d,  0 h,  0 min,  0.023 sec
 * ratio c/w:     0.948 speedup


-------------------------   --------------------
FINAL SINGLE POINT ENERGY       -31.324117659160
-------------------------   --------------------


-------------
DIPOLE MOMENT
-------------
                                X             Y             Z
Total Dipole Moment    :     -0.71700      -1.63100       1.72100
                        -----------------------------------------
Magnitude (a.u.)       :      2.47711
Magnitude (Debye)      :      6.29632


------------------
CARTESIAN GRADIENT
------------------

   1   C   :    0.005579203    0.001759326    0.008033349
   2   C   :    0.004183071   -0.004196188    0.005209507
   3   O   :    0.002628659    0.003470333   -0.004172108
   4   H   :   -0.003142522   -0.001095783   -0.000048291
   5   O   :    0.005003639   -0.003386348    0.001374192
   6   C   :   -0.003469921    0.002592654   -0.010865881
   7   H   :   -0.001432233    0.001798028   -0.000003309
   8   H   :   -0.001923261    0.000990980   -0.001129723
   9   C   :   -0.013929068   -0.002699989    0.000812552
  10   O   :   -0.006375524   -0.000349256   -0.006077593
  11   N   :    0.011537721   -0.003060646    0.004255567
  12   O   :    0.009697697   -0.000968744    0.003434457
  13   H   :   -0.003646725    0.002030832    0.000329584
  14   H   :   -0.003446086    0.003490918   -0.003029111
  15   H   :    0.001729433   -0.000288557    0.001144625
  16   H   :   -0.002994083   -0.000087558    0.000732182

Difference to translation invariance:
           :   -0.0000000000   -0.0000000000    0.0000000000

Difference to rotation invariance:
           :   -0.0000000165    0.0000001942    0.0000002880

Norm of the Cartesian gradient     ...    0.0317272224
RMS gradient                       ...    0.0045794301
MAX gradient                       ...    0.0139290676
------------------------------------------------------------------------------
                         ORCA GEOMETRY RELAXATION STEP
------------------------------------------------------------------------------

Reading the OPT-File                    .... done
Getting information on internals        .... done
Copying old internal coords+grads       .... done
Making the new internal coordinates     .... (2022 redundants) done
Validating the new internal coordinates .... (2022 redundants) done
Calculating the B-matrix                .... done
Calculating the G,G- and P matrices     .... done
Transforming gradient to internals      .... done
Projecting the internal gradient        .... done
Number of atoms                         ....  16
Number of internal coordinates          ....  66
Current Energy                          ....   -31.324117659 Eh
Current gradient norm                   ....     0.031727222 Eh/bohr
Maximum allowed component of the step   ....  0.300
Current trust radius                    ....  0.300
Updating the Hessian (BFGS)             .... done
Forming the augmented Hessian           .... done
Diagonalizing the augmented Hessian     .... done
Last element of RFO vector              ....  0.952002222
Lowest eigenvalues of augmented Hessian:
 -0.003955811  0.010672758  0.010864700  0.012690552  0.012833890
Length of the computed step             ....  0.321523527
Warning: the length of the step is outside the trust region - taking restricted step instead
The input lambda is                     ....     0.009311
   iter:   5  x=    0.002424  g=  130.344834 f(x)=     0.341595
   iter:  10  x=   -0.005555  g=    7.363198 f(x)=     0.000021
The output lambda is                    ....    -0.005555 (12 iterations)
The final length of the internal step   ....  0.300000000
Converting the step to Cartesian space:
 Initial RMS(Int)=    0.0369274473
Transforming coordinates:
 Iter   0:  RMS(Cart)=    0.0845804827 RMS(Int)=    1.0873134142
 Iter   5:  RMS(Cart)=    0.0000004606 RMS(Int)=    0.0000003228
done
Storing new coordinates                 .... done
The predicted energy change is          ....    -0.002150798
Previously predicted energy change      ....    -0.004739140
Actually observed energy change         ....    -0.005679760
Ratio of predicted to observed change   ....     1.198479080
New trust radius                        ....     0.450000000

                                .--------------------.
          ----------------------|Geometry convergence|-------------------------
          Item                value                   Tolerance       Converged
          ---------------------------------------------------------------------
          Energy change      -0.0056797605            0.0000050000      NO
          RMS gradient        0.0027324805            0.0001000000      NO
          MAX gradient        0.0096777946            0.0003000000      NO
          RMS step            0.0369274473            0.0020000000      NO
          MAX step            0.0854057961            0.0040000000      NO
          -------------------------------------------------------------------------
          ........................................................
          Max(Bonds)      0.0384      Max(Angles)    2.88
          Max(Dihed)        4.89      Max(Improp)    0.00
          ---------------------------------------------------------------------

    ---------------------------------------------------------------------------
                         Redundant Internal Coordinates
                            (Angstroem and degrees)

        Definition                    Value    dE/dq     Step     New-Value
    ----------------------------------------------------------------------------
     1. B(C   1,C   0)                1.5052 -0.001217  0.0046    1.5098   
     2. B(O   4,C   0)                1.3479 -0.000897  0.0010    1.3489   
     3. B(C   5,C   1)                1.5324 -0.000411  0.0033    1.5357   
     4. B(H   6,C   1)                1.0952  0.001344 -0.0032    1.0920   
     5. B(H   7,C   1)                1.0926 -0.000620  0.0002    1.0928   
     6. B(C   8,C   5)                1.5364 -0.002712  0.0059    1.5423   
     7. B(C   8,O   2)                1.1984  0.005240 -0.0111    1.1873   
     8. B(O   9,C   0)                1.2040  0.008122 -0.0107    1.1933   
     9. B(N  10,C   5)                1.4753  0.006572 -0.0203    1.4550   
    10. B(N  10,H   3)                1.8302 -0.001855  0.0384    1.8686   
    11. B(O  11,C   8)                1.3395  0.008779 -0.0169    1.3226   
    12. B(O  11,H   3)                0.9871  0.000540 -0.0027    0.9844   
    13. B(H  12,N  10)                1.0175  0.000980 -0.0062    1.0113   
    14. B(H  12,O   4)                2.4131 -0.000298 -0.0152    2.3979   
    15. B(H  13,O   4)                0.9742  0.002360 -0.0067    0.9675   
    16. B(H  14,C   5)                1.0946 -0.000921  0.0011    1.0957   
    17. B(H  15,N  10)                1.0194  0.000725 -0.0036    1.0158   
    18. A(C   1,C   0,O   9)          125.82  0.000619   -0.57    125.25   
    19. A(C   1,C   0,O   4)          113.37  0.003720   -0.82    112.55   
    20. A(O   4,C   0,O   9)          120.75 -0.004425    0.56    121.31   
    21. A(C   5,C   1,H   7)          111.08  0.001976   -1.26    109.82   
    22. A(C   0,C   1,H   6)          107.54 -0.001793    0.97    108.51   
    23. A(H   6,C   1,H   7)          107.23 -0.000997    0.55    107.78   
    24. A(C   5,C   1,H   6)          110.27  0.001090   -0.42    109.85   
    25. A(C   0,C   1,C   5)          112.35 -0.000239    0.52    112.87   
    26. A(C   0,C   1,H   7)          108.16 -0.000211   -0.26    107.91   
    27. A(C   0,O   4,H  13)          106.08 -0.009678    2.88    108.96   
    28. A(C   8,C   5,N  10)          107.66  0.000667    0.01    107.67   
    29. A(C   1,C   5,N  10)          114.41 -0.003325    1.85    116.26   
    30. A(N  10,C   5,H  14)          107.15 -0.000762    0.06    107.20   
    31. A(C   8,C   5,H  14)          105.57 -0.000198   -0.20    105.37   
    32. A(C   1,C   5,H  14)          110.70  0.002182   -1.22    109.49   
    33. A(C   1,C   5,C   8)          110.89  0.001565   -0.59    110.30   
    34. A(C   5,C   8,O  11)          112.25 -0.001079    0.91    113.16   
    35. A(O   2,C   8,O  11)          123.16 -0.002520    0.26    123.42   
    36. A(O   2,C   8,C   5)          124.57  0.003574   -1.14    123.42   
    37. A(H  12,N  10,H  15)          104.96 -0.000669    1.93    106.89   
    38. A(C   5,N  10,H  15)          108.89 -0.001103    0.80    109.69   
    39. A(C   5,N  10,H  12)          107.72 -0.004082    2.13    109.85   
    40. A(H   3,O  11,C   8)          106.11 -0.002642    0.83    106.93   
    41. D(H   6,C   1,C   0,O   9)    -12.35  0.001809   -4.46    -16.81   
    42. D(C   5,C   1,C   0,O   9)   -133.87  0.001810   -4.89   -138.77   
    43. D(H   7,C   1,C   0,O   4)    -79.59 -0.002588    3.82    -75.76   
    44. D(C   5,C   1,C   0,O   4)     43.38 -0.000393    2.39     45.77   
    45. D(H   6,C   1,C   0,O   4)    164.90 -0.000394    2.82    167.72   
    46. D(H  13,O   4,C   0,O   9)     -1.52 -0.001129    3.89      2.38   
    47. D(H  13,O   4,C   0,C   1)   -178.93  0.000811   -2.91   -181.84   
    48. D(N  10,C   5,C   1,H   7)     35.45 -0.001063    3.80     39.25   
    49. D(N  10,C   5,C   1,H   6)    154.19 -0.000353    3.40    157.59   
    50. D(N  10,C   5,C   1,C   0)    -85.86 -0.002037    4.67    -81.19   
    51. D(C   8,C   5,C   1,H   7)    -86.55 -0.000715    2.90    -83.64   
    52. D(C   8,C   5,C   1,H   6)     32.20 -0.000006    2.50     34.69   
    53. D(C   8,C   5,C   1,C   0)    152.14 -0.001689    3.78    155.92   
    54. D(O   2,C   8,C   5,N  10)   -165.18  0.000202    2.07   -163.10   
    55. D(O   2,C   8,C   5,C   1)    -39.32 -0.002480    4.01    -35.30   
    56. D(O  11,C   8,C   5,N  10)     16.59  0.001108    0.73     17.32   
    57. D(O  11,C   8,C   5,C   1)    142.45 -0.001574    2.67    145.12   
    58. D(O   2,C   8,C   5,H  14)     80.63  0.000866    2.09     82.72   
    59. D(H  15,N  10,C   5,H  14)   -165.34  0.001510   -1.01   -166.35   
    60. D(H  15,N  10,C   5,C   8)     81.52  0.001788   -0.82     80.70   
    61. D(H  15,N  10,C   5,C   1)    -42.23  0.001536   -1.30    -43.53   
    62. D(H  12,N  10,C   5,H  14)    -52.03 -0.001900    2.59    -49.45   
    63. D(H  12,N  10,C   5,C   8)   -165.17 -0.001622    2.78   -162.40   
    64. D(H  12,N  10,C   5,C   1)     71.08 -0.001874    2.29     73.37   
    65. D(H   3,O  11,C   8,C   5)     -1.25  0.000248   -0.69     -1.94   
    66. D(H   3,O  11,C   8,O   2)   -179.51  0.001014   -1.97   -181.48   
    ----------------------------------------------------------------------------

Geometry step timings:
Preparation and reading OPT file:      0.000 s ( 0.650 %)
Internal coordinates            :      0.000 s ( 1.115 %)
B/P matrices and projection     :      0.001 s (24.344 %)
Hessian update/contruction      :      0.000 s ( 7.456 %)
Making the step                 :      0.002 s (41.487 %)
Converting the step to Cartesian:      0.000 s ( 4.344 %)
Storing new data                :      0.000 s ( 1.022 %)
Checking convergence            :      0.000 s ( 1.905 %)
Final printing                  :      0.001 s (17.677 %)
Total time                      :      0.004 s

Time for energy+gradient        :      0.037 s
Time for complete geometry iter :      0.043 s

         *************************************************************
         *                GEOMETRY OPTIMIZATION CYCLE   3            *
         *************************************************************
---------------------------------
CARTESIAN COORDINATES (ANGSTROEM)
---------------------------------
  C    -5.364729    2.186961    0.035053
  C    -4.073834    2.945516    0.222504
  O    -1.663602    3.830209   -1.038111
  H    -0.715666    1.679476    0.787389
  O    -5.384244    1.020654    0.713127
  C    -2.836844    2.047885    0.081118
  H    -4.033622    3.752700   -0.511879
  H    -4.091411    3.399684    1.216322
  C    -1.606814    2.888542   -0.317187
  O    -6.317820    2.576620   -0.568010
  N    -2.477313    1.263916    1.252071
  O    -0.480783    2.448093    0.218768
  H    -3.134787    0.503564    1.367092
  H    -6.242373    0.594111    0.580244
  H    -2.987814    1.344953   -0.745720
  H    -2.548153    1.841438    2.084679

----------------------------
CARTESIAN COORDINATES (A.U.)
----------------------------
  NO LB    ZA    FRAG    MASS        X           Y           Z
   0 C   6.0000    1    12.011  -10.137869    4.132758    0.066241
   1 C   6.0000    1    12.011   -7.698431    5.566219    0.420472
   2 O   8.0000    1    15.999   -3.143753    7.238045   -1.961746
   3 H   1.0000    1     1.008   -1.352412    3.173750    1.487949
   4 O   8.0000    1    15.999  -10.174746    1.928756    1.347614
   5 C   6.0000    1    12.011   -5.360857    3.869943    0.153290
   6 H   1.0000    1     1.008   -7.622441    7.091576   -0.967311
   7 H   1.0000    1     1.008   -7.731646    6.424472    2.298516
   8 C   6.0000    1    12.011   -3.036438    5.458553   -0.599397
   9 O   8.0000    1    15.999  -11.938949    4.869106   -1.073384
  10 N   7.0000    1    14.007   -4.681443    2.388455    2.366072
  11 O   8.0000    1    15.999   -0.908549    4.626225    0.413413
  12 H   1.0000    1     1.008   -5.923889    0.951599    2.583429
  13 H   1.0000    1     1.008  -11.796375    1.122707    1.096502
  14 H   1.0000    1     1.008   -5.646150    2.541594   -1.409207
  15 H   1.0000    1     1.008   -4.815312    3.479814    3.939472

      -----------------------------------------------------------      
     |                   =====================                   |     
     |                           x T B                           |     
     |                   =====================                   |     
     |                         S. Grimme                         |     
     |          Mulliken Center for Theoretical Chemistry        |     
     |                    University of Bonn                     |     
      -----------------------------------------------------------      

   * xtb version 6.7.1 (edcfbbe) compiled by 'albert@albert-system' on 2024-07-22

   xtb is free software: you can redistribute it and/or modify it under
   the terms of the GNU Lesser General Public License as published by
   the Free Software Foundation, either version 3 of the License, or
   (at your option) any later version.
   
   xtb is distributed in the hope that it will be useful,
   but WITHOUT ANY WARRANTY; without even the implied warranty of
   MERCHANTABILITY or FITNESS FOR A PARTICULAR PURPOSE.  See the
   GNU Lesser General Public License for more details.
   
   Cite this work as:
   * C. Bannwarth, E. Caldeweyher, S. Ehlert, A. Hansen, P. Pracht,
     J. Seibert, S. Spicher, S. Grimme, WIREs Comput. Mol. Sci., 2020, 11,
     e01493. DOI: 10.1002/wcms.1493
   
   for GFN2-xTB:
   * C. Bannwarth, S. Ehlert and S. Grimme., J. Chem. Theory Comput., 2019,
     15, 1652-1671. DOI: 10.1021/acs.jctc.8b01176
   for GFN1-xTB:
   * S. Grimme, C. Bannwarth, P. Shushkov, J. Chem. Theory Comput., 2017,
     13, 1989-2009. DOI: 10.1021/acs.jctc.7b00118
   for GFN0-xTB:
   * P. Pracht, E. Caldeweyher, S. Ehlert, S. Grimme, ChemRxiv, 2019, preprint.
     DOI: 10.26434/chemrxiv.8326202.v1
   for GFN-FF:
   * S. Spicher and S. Grimme, Angew. Chem. Int. Ed., 2020, 59, 15665-15673.
     DOI: 10.1002/anie.202004239
   
   for ALPB and GBSA implicit solvation:
   * S. Ehlert, M. Stahn, S. Spicher, S. Grimme, J. Chem. Theory Comput.,
     2021, 17, 4250-4261. DOI: 10.1021/acs.jctc.1c00471
   
   for ddCOSMO and CPCM-X implicit solvation:
   * M. Stahn, S. Ehlert, S. Grimme, J. Phys. Chem. A,
     2023, XX, XXXX-XXXX. DOI: 10.1021/acs.jpca.3c04382
   
   for DFT-D4:
   * E. Caldeweyher, C. Bannwarth and S. Grimme, J. Chem. Phys., 2017,
     147, 034112. DOI: 10.1063/1.4993215
   * E. Caldeweyher, S. Ehlert, A. Hansen, H. Neugebauer, S. Spicher,
     C. Bannwarth and S. Grimme, J. Chem. Phys., 2019, 150, 154122.
     DOI: 10.1063/1.5090222
   * E. Caldeweyher, J.-M. Mewes, S. Ehlert and S. Grimme, Phys. Chem. Chem. Phys.
     2020, 22, 8499-8512. DOI: 10.1039/D0CP00502A
   
   for sTDA-xTB:
   * S. Grimme and C. Bannwarth, J. Chem. Phys., 2016, 145, 054103.
     DOI: 10.1063/1.4959605
   
   in the mass-spec context:
   * V. Asgeirsson, C. Bauer and S. Grimme, Chem. Sci., 2017, 8, 4879.
     DOI: 10.1039/c7sc00601b
   * J. Koopman and S. Grimme, ACS Omega 2019, 4, 12, 15120-15133.
     DOI: 10.1021/acsomega.9b02011
   
   for metadynamics refer to:
   * S. Grimme, J. Chem. Theory Comput., 2019, 155, 2847-2862
     DOI: 10.1021/acs.jctc.9b00143
   
   for SPH calculations refer to:
   * S. Spicher and S. Grimme, J. Chem. Theory Comput., 2021, 17, 1701-1714
     DOI: 10.1021/acs.jctc.0c01306
   
   for ONIOM refer to:
   * C. Plett, A. Katbashev, S. Ehlert, S. Grimme, M. Bursch,
     Phys. Chem. Chem. Phys., 2023, 25, 17860-17868. DOI: 10.1039/D3CP02178E
   
   for DIPRO refer to:
   * J. Kohn, N. Gildemeister, S. Grimme, D. Fazzi, A. Hansen,
     J. Chem. Phys., 2023, just accepted.
   
   for PTB refer to:
   * S. Grimme, M. Mueller, A. Hansen, J. Chem. Phys., 2023, 158, 124111.
     DOI: 10.1063/5.0137838
   
   with help from (in alphabetical order)
   P. Atkinson, C. Bannwarth, F. Bohle, G. Brandenburg, E. Caldeweyher
   M. Checinski, S. Dohm, S. Ehlert, S. Ehrlich, I. Gerasimov, C. Hölzer
   A. Katbashev, J. Kohn, J. Koopman, C. Lavigne, S. Lehtola, F. März, M. Müller,
   F. Musil, H. Neugebauer, J. Pisarek, C. Plett, P. Pracht, F. Pultar,
   J. Seibert, P. Shushkov, S. Spicher, M. Stahn, M. Steiner, T. Strunk,
   J. Stückrath, T. Rose, and J. Unsleber
   
 * started run on 2025/08/14 at 10:33:15.206     
   ID    Z sym.   atoms
    1    6 C      1, 2, 6, 9
    2    8 O      3, 5, 10, 12
    3    1 H      4, 7, 8, 13-16
    4    7 N      11

           -------------------------------------------------
          |                Calculation Setup                |
           -------------------------------------------------

          program call               : otool_xtb d_XTB.xyz --grad -c 0 -u 0 -P 1 --namespace d --input d_XTB.input.tmp --acc 0.200000
          calculation namespace      : d
          coordinate file            : d_XTB.xyz
          omp threads                :                     1


           -------------------------------------------------
          |                 G F N 2 - x T B                 |
           -------------------------------------------------

        Reference                      10.1021/acs.jctc.8b01176
      * Hamiltonian:
        H0-scaling (s, p, d)           1.850000    2.230000    2.230000
        zeta-weighting                 0.500000
      * Dispersion:
        s8                             2.700000
        a1                             0.520000
        a2                             5.000000
        s9                             5.000000
      * Repulsion:
        kExp                           1.500000    1.000000
        rExp                           1.000000
      * Coulomb:
        alpha                          2.000000
        third order                    shell-resolved
        anisotropic                    true
        a3                             3.000000
        a5                             4.000000
        cn-shift                       1.200000
        cn-exp                         4.000000
        max-rad                        5.000000

q/qsh data taken from xtbrestart
CAMM data taken from xtbrestart

          ...................................................
          :                      SETUP                      :
          :.................................................:
          :  # basis functions                  43          :
[...]
          omp threads                :                     1


           -------------------------------------------------
          |                 G F N 2 - x T B                 |
           -------------------------------------------------

        Reference                      10.1021/acs.jctc.8b01176
      * Hamiltonian:
        H0-scaling (s, p, d)           1.850000    2.230000    2.230000
        zeta-weighting                 0.500000
      * Dispersion:
        s8                             2.700000
        a1                             0.520000
        a2                             5.000000
        s9                             5.000000
      * Repulsion:
        kExp                           1.500000    1.000000
        rExp                           1.000000
      * Coulomb:
        alpha                          2.000000
        third order                    shell-resolved
        anisotropic                    true
        a3                             3.000000
        a5                             4.000000
        cn-shift                       1.200000
        cn-exp                         4.000000
        max-rad                        5.000000

q/qsh data taken from xtbrestart
CAMM data taken from xtbrestart

          ...................................................
          :                      SETUP                      :
          :.................................................:
          :  # basis functions                  43          :
          :  # atomic orbitals                  43          :
          :  # shells                           25          :
          :  # electrons                        52          :
          :  max. iterations                   250          :
          :  Hamiltonian                  GFN2-xTB          :
          :  restarted?                       true          :
          :  GBSA solvation                  false          :
          :  PC potential                    false          :
          :  electronic temp.          300.0000000     K    :
          :  accuracy                    0.2000000          :
          :  -> integral cutoff          0.3198970E+02      :
          :  -> integral neglect         0.2000000E-08      :
          :  -> SCF convergence          0.2000000E-06 Eh   :
          :  -> wf. convergence          0.2000000E-04 e    :
          :  Broyden damping             0.4000000          :
          :  net charge                          0          :
          :  unpaired electrons                  0          :
          ...................................................

 iter      E             dE          RMSdq      gap      omega  full diag
   1    -31.6020449 -0.316020E+02  0.352E-03    4.14       0.0  T
   2    -31.6020449 -0.239877E-08  0.206E-03    4.14      12.1  T
   3    -31.6020449 -0.494019E-09  0.197E-04    4.14     127.1  T
   4    -31.6020449 -0.174083E-09  0.980E-05    4.14     255.2  T

   *** convergence criteria satisfied after 4 iterations ***

         #    Occupation            Energy/Eh            Energy/eV
      -------------------------------------------------------------
         1        2.0000           -0.7652106             -20.8224
       ...           ...                  ...                  ...
        20        2.0000           -0.5018492             -13.6560
        21        2.0000           -0.4942658             -13.4497
        22        2.0000           -0.4837824             -13.1644
        23        2.0000           -0.4727891             -12.8652
        24        2.0000           -0.4454768             -12.1220
        25        2.0000           -0.4285847             -11.6624
        26        2.0000           -0.4058949             -11.0450 (HOMO)
        27                         -0.2538270              -6.9070 (LUMO)
        28                         -0.2358618              -6.4181
        29                          0.0080325               0.2186
        30                          0.0130203               0.3543
        31                          0.0583250               1.5871
       ...                                ...                  ...
        43                          0.6477007              17.6248
      -------------------------------------------------------------
                  HL-Gap            0.1520679 Eh            4.1380 eV
             Fermi-level           -0.3298610 Eh           -8.9760 eV

 SCC (total)                   0 d,  0 h,  0 min,  0.011 sec
 SCC setup                      ...        0 min,  0.000 sec (  0.738%)
 Dispersion                     ...        0 min,  0.000 sec (  0.415%)
 classical contributions        ...        0 min,  0.000 sec (  0.092%)
 integral evaluation            ...        0 min,  0.001 sec (  7.249%)
 iterations                     ...        0 min,  0.004 sec ( 37.470%)
 molecular gradient             ...        0 min,  0.006 sec ( 52.556%)
 printout                       ...        0 min,  0.000 sec (  1.326%)

         :::::::::::::::::::::::::::::::::::::::::::::::::::::
         ::                     SUMMARY                     ::
         :::::::::::::::::::::::::::::::::::::::::::::::::::::
         :: total energy             -31.330190765499 Eh    ::
         :: gradient norm              0.000081400656 Eh/a0 ::
         :: HOMO-LUMO gap              4.137979000046 eV    ::
         ::.................................................::
         :: SCC energy               -31.602027952967 Eh    ::
         :: -> isotropic ES            0.103411836867 Eh    ::
         :: -> anisotropic ES         -0.000242929184 Eh    ::
         :: -> anisotropic XC          0.002567957298 Eh    ::
         :: -> dispersion             -0.010647587775 Eh    ::
         :: repulsion energy           0.271837187467 Eh    ::
         :: add. restraining           0.000000000000 Eh    ::
         :: total charge              -0.000000000000 e     ::
         :::::::::::::::::::::::::::::::::::::::::::::::::::::


Property printout bound to 'properties.out'

           -------------------------------------------------
          | TOTAL ENERGY              -31.330190765499 Eh   |
          | GRADIENT NORM               0.000081400656 Eh/α |
          | HOMO-LUMO GAP               4.137979000046 eV   |
           -------------------------------------------------

------------------------------------------------------------------------
 * finished run on 2025/08/14 at 10:33:16.830     
------------------------------------------------------------------------
 total:
 * wall-time:     0 d,  0 h,  0 min,  0.019 sec
 *  cpu-time:     0 d,  0 h,  0 min,  0.017 sec
 * ratio c/w:     0.937 speedup
 SCF:
 * wall-time:     0 d,  0 h,  0 min,  0.011 sec
 *  cpu-time:     0 d,  0 h,  0 min,  0.010 sec
 * ratio c/w:     0.899 speedup


-------------------------   --------------------
FINAL SINGLE POINT ENERGY       -31.330190765500
-------------------------   --------------------


-------------
DIPOLE MOMENT
-------------
                                X             Y             Z
Total Dipole Moment    :     -1.16100      -1.12800       0.86400
                        -----------------------------------------
Magnitude (a.u.)       :      1.83488
Magnitude (Debye)      :      4.66391

                                *** OPTIMIZATION RUN DONE ***

		     ------------------------------
			                   _   
			                  | |  
			  __ _  ___   __ _| |_ 
			 / _` |/ _ \ / _` | __|
			| (_| | (_) | (_| | |_ 
			 \__, |\___/ \__,_|\__|
			 __/ |                
			|___/                 

		      A Global Optimizer Algorithm
		     ------------------------------

Global parameters
-----------------
  GOAT version                               ... default
  Minimum global steps                       ... 3
  Number of base workers                     ... 4
  Split workers by                           ... 2
  Final number of workers                    ... 8
  Number of available CPUs                   ... 1
  Parameter list (worker : temperature)      ...  0 : 2903.97,  1 : 1451.98, 
                                                  2 :  725.99,  3 :  363.00, 
                                                  4 : 2903.97,  5 : 1451.98, 
                                                  6 :  725.99,  7 :  363.00 
  GradComp (mean : sigma)                    ... 1.00 : 0.50
  Number of fragments                        ... 1
  Number of atoms                            ... 16
  Flexibility parameter                      ... 0.67
  Optimizations per global step              ... 168
  Optimizations per worker                   ... 21

Filtering criteria
------------------
  RMSD                                       ... 0.125 Angs (atom. pos.)
  EnDiff                                     ... 0.100 kcal/mol
  RotConst                                   ... 1.00-2.50 %
  Maximum Conf. Energy                       ... 6.000 kcal/mol

Thermodynamics
--------------
  Ensemble temperature                       ... 298.15 K
  Degeneracy of conformers                   ... 1
  *No rotamers will be included in Gconf

------------------------------------------------------------------------------
   Iter  MinTemp     MaxEn       GradComp    NOpt   NProcs    Output
------------------------------------------------------------------------------
   0     2903.97     48.00    1.00 : 0.50      21        1    d.goat.0.0.out
   1     1451.98     48.00    1.00 : 0.50      21        1    d.goat.0.1.out
   2      725.99     48.00    1.00 : 0.50      21        1    d.goat.0.2.out
   3      363.00     48.00    1.00 : 0.50      21        1    d.goat.0.3.out
   4     2903.97     48.00    1.00 : 0.50      21        1    d.goat.0.4.out
   5     1451.98     48.00    1.00 : 0.50      21        1    d.goat.0.5.out
   6      725.99     48.00    1.00 : 0.50      21        1    d.goat.0.6.out
   7      363.00     48.00    1.00 : 0.50      21        1    d.goat.0.7.out

			     GOAT Global Iter 1
		Iter    Min En       Sconf       Gconf   
		        Hartree      cal/(molK)  kcal/mol
		=========================================

		   1    -31.332765   3.925       -0.633

   0     2903.97     48.00    1.00 : 0.50      21        1    d.goat.1.0.out
   1     1451.98     48.00    1.00 : 0.50      21        1    d.goat.1.1.out
   2      725.99     48.00    1.00 : 0.50      21        1    d.goat.1.2.out
   3      363.00     48.00    1.00 : 0.50      21        1    d.goat.1.3.out
   4     2903.97     48.00    1.00 : 0.50      21        1    d.goat.1.4.out
   5     1451.98     48.00    1.00 : 0.50      21        1    d.goat.1.5.out
   6      725.99     48.00    1.00 : 0.50      21        1    d.goat.1.6.out
   7      363.00     48.00    1.00 : 0.50      21        1    d.goat.1.7.out

			     GOAT Global Iter 2
		Iter    Min En       Sconf       Gconf   
		        Hartree      cal/(molK)  kcal/mol
		=========================================

		   1    -31.332765   3.925       -0.633
		   2    -31.332765   5.544       -0.849

   0     2903.97     48.00    1.00 : 0.50      21        1    d.goat.2.0.out
   1     1451.98     48.00    1.00 : 0.50      21        1    d.goat.2.1.out
   2      725.99     48.00    1.00 : 0.50      21        1    d.goat.2.2.out
   3      363.00     48.00    1.00 : 0.50      21        1    d.goat.2.3.out
   4     2903.97     48.00    1.00 : 0.50      21        1    d.goat.2.4.out
   5     1451.98     48.00    1.00 : 0.50      21        1    d.goat.2.5.out
   6      725.99     48.00    1.00 : 0.50      21        1    d.goat.2.6.out
   7      363.00     48.00    1.00 : 0.50      21        1    d.goat.2.7.out

			     GOAT Global Iter 3
		Iter    Min En       Sconf       Gconf   
		        Hartree      cal/(molK)  kcal/mol
		=========================================

		   1    -31.332765   3.925       -0.633
		   2    -31.332765   5.544       -0.849
		   3    -31.332765   5.712       -0.879

		Global minimum found!
		Writing structure to d.globalminimum.xyz

		# Final ensemble info #
		Conformer     Energy     Degen.   % total   % cumul.  
		              (kcal/mol)
		------------------------------------------------------
		        0     0.000	     1      22.69      22.69
		        1     0.048	     1      20.91      43.60
		        2     0.926	     1       4.75      48.35
		        3     0.972	     1       4.40      52.75
		        4     0.977	     1       4.36      57.12
		        5     1.020	     1       4.06      61.18
		        6     1.081	     1       3.66      64.83
		        7     1.186	     1       3.06      67.90
		        8     1.309	     1       2.49      70.39
		        9     1.313	     1       2.47      72.86
		       10     1.397	     1       2.15      75.01
		       11     1.418	     1       2.07      77.08
		       12     1.437	     1       2.01      79.09
		       13     1.501	     1       1.80      80.89
		       14     1.539	     1       1.69      82.58
		       15     1.545	     1       1.67      84.25
		       16     1.553	     1       1.65      85.90
		       17     1.615	     1       1.49      87.38
		       18     1.765	     1       1.15      88.54
		       19     1.862	     1       0.98      89.52
		       20     1.912	     1       0.90      90.42
		       21     1.971	     1       0.81      91.23
		       22     2.058	     1       0.70      91.93
		       23     2.073	     1       0.69      92.62
		       24     2.126	     1       0.63      93.25
		       25     2.135	     1       0.62      93.86
		       26     2.236	     1       0.52      94.39
		       27     2.248	     1       0.51      94.90
		       28     2.286	     1       0.48      95.37
		       29     2.299	     1       0.47      95.84
		       30     2.345	     1       0.43      96.28
		       31     2.355	     1       0.43      96.70
		       32     2.467	     1       0.35      97.05
		       33     2.475	     1       0.35      97.40
		       34     2.515	     1       0.33      97.73
		       35     2.586	     1       0.29      98.02
		       36     2.672	     1       0.25      98.27
		       37     2.683	     1       0.25      98.51
		       38     2.686	     1       0.24      98.76
		       39     2.823	     1       0.19      98.95
		       40     2.916	     1       0.17      99.11
		       41     2.950	     1       0.16      99.27
		       42     2.995	     1       0.14      99.42
		       43     3.038	     1       0.13      99.55
		       44     3.266	     1       0.09      99.64
		       45     3.564	     1       0.06      99.70
		       46     3.744	     1       0.04      99.74
		       47     3.829	     1       0.04      99.77
		       48     3.893	     1       0.03      99.80
		       49     3.907	     1       0.03      99.84
		       50     3.939	     1       0.03      99.86
		       51     4.066	     1       0.02      99.89
		       52     4.149	     1       0.02      99.91
		       53     4.312	     1       0.02      99.93
		       54     4.364	     1       0.01      99.94
		       55     4.369	     1       0.01      99.95
		       56     4.629	     1       0.01      99.96
		       57     4.679	     1       0.01      99.97
		       58     4.869	     1       0.01      99.98
		       59     4.886	     1       0.01      99.98
		       60     4.931	     1       0.01      99.99
		       61     5.189	     1       0.00      99.99
		       62     5.250	     1       0.00     100.00
		       63     5.497	     1       0.00     100.00
		       64     5.847	     1       0.00     100.00
		       65     5.868	     1       0.00     100.00

		Conformers below 3 kcal/mol: 43
		Lowest energy conformer    : -31.332765 Eh
		Sconf at 298.15 K          :  5.71 cal/(molK)
		Gconf at 298.15 K          : -0.88 kcal/mol

		Writing final ensemble to d.finalensemble.xyz

--------------------------------
SUGGESTED CITATIONS FOR THIS RUN
--------------------------------

Below you find a list of papers that are relevant to this ORCA run
We neither can nor want to force you to cite these papers, but we appreciate if you do
You receive ORCA, which is the product of decades of hard work by many enthusiastic individuals, for free
The only thing we kindly ask in return is that you cite our papers,
We deeply appreciate it, if you show your appreciation for ORCA by not just citing the generic ORCA reference.

Please note that relegating all ORCA citations to the supporting information does *not* help us.
SI sections are not indexed - citations you put there will not count into any citation statistics
But we need these citations in order to attract the funding resources that allow us to do what we are doing

Therefore, if you are a happy ORCA user, please consider citing a few of the papers listed below in the main body of your paper

In addition to the list printed below, the program has created the file d.bibtex that contains the list in bibtex format
You can import this file easily into all common literature databanks and citation aid programs


List of essential papers. We consider these as the minimum necessary citations

  1. Bannwarth, C.; Ehlert, S.; Grimme, S.
     GFN2-xTB—An Accurate and Broadly Parametrized Self-Consistent Tight-Binding Quantum Chemical Method with Multipole Electrostatics and Density-Dependent Dispersion Contributions
     J. Chem. Theory Comput. 2019 15(3), 1652-1671
     doi.org/10.1021/acs.jctc.8b01176
  2. Neese, F.
     Software update: the ORCA program system, version 6.0
     WIRES Comput. Molec. Sci. 2025 15(1), e70019
     doi.org/10.1002/wcms.7019
  3. de Souza, B.
     GOAT: A Global Optimization Algorithm for Molecules and Atomic Clusters
     Angewandte Chemie 2025 64(18), e202500393
     doi.org/10.1002/anie.202500393

List of papers to cite with high priority. The work reported in these papers was absolutely
necessary for this run to complete.
Our perspective: the developers of density functionals and basis sets usually get cited in chemistry papers
Good! But without the algorithms to do something with them, the functionals or basis sets would not do anything.
Hence, in our opinion, the algorithm design and method developments papers are equally worthy of getting cited

  1. Bannwarth, C.; Caldeweyher, E.; Ehlert, S.; Hansen, A.; Pracht, P.; Seibert, J.; Spicher, S.; Grimme, S.
     Extended tight-binding quantum chemistry methods
     WIRES Comput. Molec. Sci. 2020 11(2), e1493
     doi.org/10.1002/wcms.1493

List of suggested additional citations. These are papers that are important in the 'surrounding' of 
of this run, or papers that preceded the highly important papers. If you like your results we are grateful for a citation.

  1. Neese, F.
     The ORCA program system
     WIRES Comput. Molec. Sci. 2012 2(1), 73-78
     doi.org/10.1002/wcms.81
  2. Neese, F.
     Software update: the ORCA program system, version 4.0
     WIRES Comput. Molec. Sci. 2018 8(1), 1-6
     doi.org/10.1002/wcms.1327
  3. Neese, F.; Wennmohs, F.; Becker, U.; Riplinger, C.
     The ORCA quantum chemistry program package
     J. Chem. Phys. 2020 152(22), 224108
     doi.org/10.1063/5.0004608
  4. Neese, F.
     Software update: The ORCA program system—Version 5.0
     WIRES Comput. Molec. Sci. 2022 12(1), e1606
     doi.org/10.1002/wcms.1606

List of optional additional citations

  1. Neese, F.
     Approximate second-order SCF convergence for spin unrestricted wavefunctions
     Chem. Phys. Lett. 2000 325(1-3), 93-98
     doi.org/10.1016/s0009-2614(00)00662-x

Timings for individual modules:

Sum of individual times          ...      820.032 sec (=  13.667 min)
Geometry relaxation              ...        0.128 sec (=   0.002 min)   0.0 %
GOAT                             ...      818.352 sec (=  13.639 min)  99.8 %
XTB module                       ...        1.551 sec (=   0.026 min)   0.2 %
                             ****ORCA TERMINATED NORMALLY****
TOTAL RUN TIME: 0 days 0 hours 13 minutes 40 seconds 310 msec
