
                                 *****************
                                 * O   R   C   A *
                                 *****************

                                            #,                                       
                                            ###                                      
                                            ####                                     
                                            #####                                    
                                            ######                                   
                                           ########,                                 
                                     ,,################,,,,,                         
                               ,,#################################,,                 
                          ,,##########################################,,             
                       ,#########################################, ''#####,          
                    ,#############################################,,   '####,        
                  ,##################################################,,,,####,       
                ,###########''''           ''''###############################       
              ,#####''   ,,,,##########,,,,          '''####'''          '####       
            ,##' ,,,,###########################,,,                        '##       
           ' ,,###''''                  '''############,,,                           
         ,,##''                                '''############,,,,        ,,,,,,###''
      ,#''                                            '''#######################'''  
     '                                                          ''''####''''         
             ,#######,   #######,   ,#######,      ##                                
            ,#'     '#,  ##    ##  ,#'     '#,    #''#        ,####,    ,#,          
            ##       ##  ##   ,#'  ##            #'  '#       #'       ,# #          
            ##       ##  #######   ##           ,######,      #####,      #          
            '#,     ,#'  ##    ##  '#,     ,#' ,#      #,     #,   #      #          
             '#######'   ##     ##  '#######'  #'      '#     '####' #    #          



                #########################################################
                #                        -***-                          #
                #          Department of theory and spectroscopy        #
                #                                                       #
                #                      Frank Neese                      #
                #                                                       #
                #     Directorship, Architecture, Infrastructure        #
                #                    SHARK, DRIVERS                     #
                #        Core code/Algorithms in most modules           #
                #                                                       #
                #        Max Planck Institute fuer Kohlenforschung      #
                #                Kaiser Wilhelm Platz 1                 #
                #                 D-45470 Muelheim/Ruhr                 #
                #                      Germany                          #
                #                                                       #
                #                  All rights reserved                  #
                #                        -***-                          #
                #########################################################


                         Program Version 6.1.0  -  RELEASE   -
                                (GIT: $679e74b$)
                          ($2025-06-10 18:02:51 +0200$)


 With contributions from (in alphabetic order):
[Max-Planck-Institut fuer Kohlenforschung]                               
  Daniel Aravena         : Magnetic Suceptibility                        
  Michael Atanasov       : Ab Initio Ligand Field Theory (pilot matlab implementation)
  Alexander A. Auer      : GIAO ZORA, VPT2 properties, NMR spectrum      
  Ute Becker             : All parallelization in ORCA, NUMFREQ, NUMCALC 
  Giovanni Bistoni       : ED, misc. LED, open-shell LED, HFLD           
  Dmytro Bykov           : pre 5.0 version of the SCF Hessian            
  Marcos Casanova-Páez   : Triplet and SCS-CIS(D). UHF-(DLPNO)-IP/EA/STEOM-CCSD. UHF-CVS-IP/STEOM-CCSD   
  Vijay G. Chilkuri      : MRCI spin determinant printing, contributions to CSF-ICE 
  Pauline Colinet        : FMM embedding                                 
  Dipayan Datta          : RHF DLPNO-CCSD density                        
  Achintya Kumar Dutta   : EOM-CC, STEOM-CC                              
  Nicolas Foglia         : Exact transition moments, OPA infrastructure, MCD improvements    
  Dmitry Ganyushin       : Spin-Orbit,Spin-Spin,Magnetic field MRCI      
  Miquel Garcia-Rates    : C-PCM and meta-GGA Hessian, CCSD/C-PCM, Gaussian charge scheme 
  Tiago L. C. Gouveia    : GS-ROHF, GS-ROCIS                             
  Yang Guo               : DLPNO-NEVPT2, F12-NEVPT2, CIM, IAO-localization        
  Andreas Hansen         : Spin unrestricted coupled pair/coupled cluster methods 
  Ingolf Harden          : AUTO-CI MPn and infrastructure                
  Benjamin Helmich-Paris : MC-RPA, TRAH-(SCF,CASSCF), AVAS, COSX integrals, SCF dyn. polar., MC-PDFT, srDFT 
  Lee Huntington         : MR-EOM, pCC                                   
  Robert Izsak           : Overlap fitted RIJCOSX, COSX-SCS-MP3, EOM     
  Riya Kayal             : Wick's Theorem for AUTO-CI, AUTO-CI UHF-CCSDT 
  Emily Kempfer          : AUTO-CI RHF CISDT and CCSDT, approximate NEVPT4
  Christian Kollmar      : KDIIS, OOCD, Brueckner-CCSD(T), CCSD density, CASPT2, CASPT2-K, improved NEVPT2 
  Axel Koslowski         : Symmetry handling                             
  Simone Kossmann        : meta-GGA functionals, TD-DFT gradient, OOMP2, (MP2 Hessian; deprecated post 5.0) 
  Lucas Lang             : DCDCAS, Hyperfine gauge corrections, ICE-SOC+SSC
  Marvin Lechner         : AUTO-CI (C++ implementation), FIC-MRCC        
  Spencer Leger          : CASSCF response                               
  Dagmar Lenk            : GEPOL surface, SMD, ORCA-2-JSON               
  Dimitrios Liakos       : Extrapolation schemes; Compound Job, Property file
  Dimitrios Manganas     : Further ROCIS development; embedding schemes. LFT, Crystal Embedding 
  Dimitrios Pantazis     : SARC Basis sets                               
  Anastasios Papadopoulos: AUTO-CI, single reference methods and gradients 
  Taras Petrenko         : pre 6.0 DFT Hessian and TD-DFT gradient,  ECA, NRVS 
  Petra Pikulova         : Analytic Raman intensities                    
  Peter Pinski           : DLPNO-MP2, DLPNO-MP2 Gradient                 
  Shashank Vittal Rao    : ES-AILFT, MagRelax                            
  Christoph Reimann      : Effective Core Potentials                     
  Marius Retegan         : Local ZFS, SOC                                
  Christoph Riplinger    : Optimizer, TS searches, QM/MM, DLPNO-CCSD(T), (RO)-DLPNO pert. Triples 
  Michael Roemelt        : Original ROCIS implementation, recursive CI coupling coefficients
  Masaaki Saitow         : Open-shell DLPNO-CCSD energy and density      
  Barbara Sandhoefer     : DKH picture change effects                    
  Yorick L. A. Schmerwitz: GMF and freeze-and-release deltaSCF, NEB S-IDPP initial path                    
  Kantharuban Sivalingam : CASSCF convergence/infrastructure, NEVPT2, NEVPT3, NEVPT4(SD), FIC-MRCI and CEPA variants
  Bernardo de Souza      : ESD, SOC TD-DFT                               
  Georgi L. Stoychev     : AutoAux, RI-MP2 NMR, DLPNO-MP2 response, X2C  
  Van Anh Tran           : RI-MP2 g-tensors                              
  Willem Van den Heuvel  : Paramagnetic NMR                              
  Zikuan Wang            : NOTCH, Electric field optimization            
  Frank Wennmohs         : Technical directorship and infrastructure     
  Hang Xu                : AUTO-CI-Response properties                   
                                                                         
[FACCTs GmbH]                                                            
  Markus Bursch, Nicolas Foglia, Miquel Garcia-Rates, Ingolf Harden, Hagen Neugebauer, Anastasios Papadopoulos, 
  Christoph Riplinger, Bernardo de Souza, Georgi L. Stoychev                                                    
                                                                 
  APM, various basis sets, CI-OPT, improved COSX, DLPNO-Multilevel,           
  DOCKER, DRACO, updates on ESD, Fragmentator, GOAT, IRC, LR-CPCM, L-BFGS, MBIS, meta-GGA TD-DFT gradient, ML-optimized integration grids, 
  MM, NACMEs, nearIR, NEB, NEB-TS, NL-DFT gradient (VV10), 2- and 3-layer-ONIOM, interface openCOSMO-RS, QMMM,   
  Crystal-QMMM, RESP, rigid body optimization, SF, symmetry and pop. for TD-DFT, various functionals, SOLVATOR                                   
                                                                         
[Other institutions]                                                     
  V. Asgeirsson          : NEB                                           
  Christoph Bannwarth    : sTDA-DFT, sTD-DFT, PBEh-3c, B97-3c, D3        
  Giovanni Bistoni       : ETS/NOCV, ADLD/ADEX, COVALED                  
  Martin Brehm           : Molecular dynamics                            
  Ronald Cardenas        : ETS/NOCV                                      
  Martina Colucci        : COVALED                                       
  Sebastian Ehlert       : rSCAN, r2SCAN, r2SCAN-3c, D4, dhf basis sets  
  Marvin Friede          : D4 for Fr, Ra, Ac-Lr                          
  Lars Goerigk           : TD-DFT with DH, B97 family of functionals     
  Stefan Grimme          : VdW corrections, initial TS optimization, DFT functionals, gCP, sTDA/sTD-DF 
  Waldemar Hujo          : DFT-NL                                        
  H. Jonsson             : NEB                                           
  Holger Kruse           : gCP                                           
  Marcel Mueller         : wB97X-3c, vDZP basis set                      
  Hagen Neugebauer       : wr2SCAN, Native XTB                           
  Gianluca Regni         : ADLD/ADEX                                     
  Tobias Risthaus        : pre 6.0 range-separated hybrid DFT and stability analysis
  Lukas Wittmann         : regularized MP2, r2SCAN double-hybrids, wr2SCAN        
                                                                         
We gratefully acknowledge several colleagues who have allowed us to      
interface, adapt or use parts of their codes:                            
  Ed Valeev, F. Pavosevic, A. Kumar             : LibInt (2-el integral package), F12 methods 
  Garnet Chan, S. Sharma, J. Yang, R. Olivares  : DMRG                   
  Ulf Ekstrom                                   : XCFun DFT Library      
  Mihaly Kallay                                 : mrcc  (arbitrary order and MRCC methods)
  Frank Weinhold                                : gennbo (NPA and NBO analysis)           
  Simon Mueller                                 : openCOSMO-RS                            
  Christopher J. Cramer and Donald G. Truhlar   : smd solvation model                     
  S Lehtola, MJT Oliveira, MAL Marques          : LibXC Library                           
  Liviu Ungur et al                             : ANISO software                          


 Your calculation uses the libint2 library for the computation of 2-el integrals
 For citations please refer to: http://libint.valeyev.net

 Your ORCA version has been built with support for libXC version: 7.0.0
 For citations please refer to: https://libxc.gitlab.io

 This ORCA versions uses:
   CBLAS   interface :  Fast vector & matrix operations
   LAPACKE interface :  Fast linear algebra routines
   SCALAPACK package :  Parallel linear algebra routines
   Shared memory     :  Shared parallel matrices
   BLAS/LAPACK       :  OpenBLAS 0.3.29  USE64BITINT DYNAMIC_ARCH NO_AFFINITY Haswell SINGLE_THREADED
        Core in use  :  Haswell
   Copyright (c) 2011-2014, The OpenBLAS Project


  ***********************************
  * Starting time: Wed Aug 13 11:58:33 2025
  * Host name:     CHEMLAB02
  * Process ID:    1530515
  * Working dir.:  /home/vivek/mm-project/vivek/B97-D/a/5
  ***********************************



***************************************
The coordinates will be read from file: /home/vivek/mm-project/vivek/xtb-goat/a/A_CONF/5.xyz
***************************************


Your calculation utilizes empirical dispersion correction


Warning: RI is on but no J-basis has been assigned. Assigning Def2/J (nothing to worry about!)
================================================================================

----- Orbital basis set information -----
Your calculation utilizes the basis: 6-31G**
   H-He, Li-Ne : W. J. Hehre, R. Ditchfield and J.A. Pople, J. Chem. Phys. 56, 2257 (1972).
                 Note: He and Ne are unpublished basis sets taken from the Gaussian program.
                 Note: Li and B from J. D. Dill and J. A. Pople, J. Chem. Phys. 62, 2921 (1975).
   Na - Ar     : M. M. Francl, W. J. Pietro, W. J. Hehre, J. S. Binkley, M. S. Gordon, 
                 D. J. DeFrees and J. A. Pople, J. Chem. Phys. 77, 3654 (1982).
   K - Zn      : V. A. Rassolov, J. A. Pople, M. A. Ratner, and T. L. Windus, J. Chem. Phys. 109, 1223 (1998).

----- AuxJ basis set information -----
Your calculation utilizes the auxiliary basis: def2/J
   H-Rn: F. Weigend, Phys. Chem. Chem. Phys. 8, 1057 (2006).
   Fr-Lr: K. Eichkorn, F. Weigend, O. Treutler, R. Ahlrichs; Theor. Chem. Acc. 97, 119 (1997).

================================================================================
                                        WARNINGS
                       Please study these warnings very carefully!
================================================================================


INFO   : The exchange functional is Grimme's B97(-D)
         As described in S. Grimme, J. Comput. Chem. 27, 1787 (2006).
         Note that this functional defaults to a pure GGA. 

INFO   : The correlation functional is Grimme's B97(-D)
         As described in S. Grimme, J. Comput. Chem. 27, 1787 (2006).

================================================================================
                                       INPUT FILE
================================================================================
NAME = 5.inp
|  1> ! B97-D 6-31G** 
|  2> 
|  3> * xyzfile 0 1 /home/vivek/mm-project/vivek/xtb-goat/a/A_CONF/5.xyz
|  4> 
|  5>                          ****END OF INPUT****
================================================================================

                       ****************************
                       * Single Point Calculation *
                       ****************************

---------------------------------
CARTESIAN COORDINATES (ANGSTROEM)
---------------------------------
  C     -4.535705   -0.305173   -1.961172
  O     -3.884470   -0.739000   -1.049812
  O     -3.987151    0.406378   -2.957289
  C     -6.032456   -0.473750   -2.093393
  H     -3.029877    0.480979   -2.821848
  N     -6.570013   -0.204858   -3.417654
  H     -6.263322   -1.509673   -1.813518
  H     -6.473127    0.167182   -1.317118
  H     -7.355476    0.431792   -3.373848
  H     -5.861895    0.212076   -4.009881

----------------------------
CARTESIAN COORDINATES (A.U.)
----------------------------
  NO LB      ZA    FRAG     MASS         X           Y           Z
   0 C     6.0000    0    12.011   -8.571241   -0.576694   -3.706079
   1 O     8.0000    0    15.999   -7.340585   -1.396507   -1.983858
   2 O     8.0000    0    15.999   -7.534624    0.767943   -5.588467
   3 C     6.0000    0    12.011  -11.399690   -0.895258   -3.955940
   4 H     1.0000    0     1.008   -5.725638    0.908919   -5.332520
   5 N     7.0000    0    14.007  -12.415525   -0.387126   -6.458431
   6 H     1.0000    0     1.008  -11.835963   -2.852868   -3.427052
   7 H     1.0000    0     1.008  -12.232437    0.315928   -2.488993
   8 H     1.0000    0     1.008  -13.899836    0.815969   -6.375648
   9 H     1.0000    0     1.008  -11.077377    0.400765   -7.577577

--------------------------------
INTERNAL COORDINATES (ANGSTROEM)
--------------------------------
 C      0   0   0     0.000000000000     0.00000000     0.00000000
 O      1   0   0     1.201203411371     0.00000000     0.00000000
 O      1   2   0     1.341441386704   122.22632527     0.00000000
 C      1   2   3     1.512006303976   124.24703454   181.25905138
 H      3   1   2     0.969682447128   109.92473003     1.21782458
 N      4   1   2     1.454282535293   115.14572101   196.10334478
 H      4   1   2     1.097618069113   106.92615367   317.61600118
 H      4   1   2     1.098902576137   105.67397924    70.93703150
 H      6   4   1     1.012025726512   111.33289259   230.19549065
 H      6   4   1     1.012914926776   110.49342143   350.19892374

---------------------------
INTERNAL COORDINATES (A.U.)
---------------------------
 C      0   0   0     0.000000000000     0.00000000     0.00000000
 O      1   0   0     2.269945478624     0.00000000     0.00000000
 O      1   2   0     2.534956845578   122.22632527     0.00000000
 C      1   2   3     2.857277827278   124.24703454   181.25905138
 H      3   1   2     1.832434261943   109.92473003     1.21782458
 N      4   1   2     2.748195713049   115.14572101   196.10334478
 H      4   1   2     2.074197550268   106.92615367   317.61600118
 H      4   1   2     2.076624916759   105.67397924    70.93703150
 H      6   4   1     1.912451463591   111.33289259   230.19549065
 H      6   4   1     1.914131808567   110.49342143   350.19892374

---------------------
BASIS SET INFORMATION
---------------------
There are 4 groups of distinct atoms

 Group   1 Type C   : 10s4p1d contracted to 3s2p1d pattern {631/31/1}
 Group   2 Type O   : 10s4p1d contracted to 3s2p1d pattern {631/31/1}
 Group   3 Type H   : 4s1p contracted to 2s1p pattern {31/1}
 Group   4 Type N   : 10s4p1d contracted to 3s2p1d pattern {631/31/1}

Atom   0C    basis set group =>   1
Atom   1O    basis set group =>   2
Atom   2O    basis set group =>   2
Atom   3C    basis set group =>   1
Atom   4H    basis set group =>   3
Atom   5N    basis set group =>   4
Atom   6H    basis set group =>   3
Atom   7H    basis set group =>   3
Atom   8H    basis set group =>   3
Atom   9H    basis set group =>   3
---------------------------------
AUXILIARY/J BASIS SET INFORMATION
---------------------------------
There are 4 groups of distinct atoms

 Group   1 Type C   : 12s5p4d2f1g contracted to 6s4p3d1f1g pattern {711111/2111/211/2/1}
 Group   2 Type O   : 12s5p4d2f1g contracted to 6s4p3d1f1g pattern {711111/2111/211/2/1}
 Group   3 Type H   : 5s2p1d contracted to 3s1p1d pattern {311/2/1}
 Group   4 Type N   : 12s5p4d2f1g contracted to 6s4p3d1f1g pattern {711111/2111/211/2/1}

Atom   0C    basis set group =>   1
Atom   1O    basis set group =>   2
Atom   2O    basis set group =>   2
Atom   3C    basis set group =>   1
Atom   4H    basis set group =>   3
Atom   5N    basis set group =>   4
Atom   6H    basis set group =>   3
Atom   7H    basis set group =>   3
Atom   8H    basis set group =>   3
Atom   9H    basis set group =>   3
------------------------------------------------------------------------------
                             ORCA STARTUP CALCULATIONS
                           -- RI-GTO INTEGRALS CHOSEN --
------------------------------------------------------------------------------
------------------------------------------------------------------------------
                   ___                                                        
                  /   \      - P O W E R E D   B Y -                         
                 /     \                                                     
                 |  |  |   _    _      __       _____    __    __             
                 |  |  |  | |  | |    /  \     |  _  \  |  |  /  |          
                  \  \/   | |  | |   /    \    | | | |  |  | /  /          
                 / \  \   | |__| |  /  /\  \   | |_| |  |  |/  /          
                |  |  |   |  __  | /  /__\  \  |    /   |      \           
                |  |  |   | |  | | |   __   |  |    \   |  |\   \          
                \     /   | |  | | |  |  |  |  | |\  \  |  | \   \       
                 \___/    |_|  |_| |__|  |__|  |_| \__\ |__|  \__/        
                                                                              
                      - O R C A' S   B I G   F R I E N D -                    
                                      &                                       
                       - I N T E G R A L  F E E D E R -                       
                                                                              
 v1 FN, 2020, v2 2021, v3 2022-2024                                           
------------------------------------------------------------------------------


----------------------
SHARK INTEGRAL PACKAGE
----------------------

Number of atoms                             ...     10
Number of basis functions                   ...     95
Number of shells                            ...     45
Maximum angular momentum                    ...      2
Integral batch strategy                     ... SHARK/LIBINT Hybrid
RI-J (if used) integral strategy            ... SPLIT-RIJ (Revised 2003 algorithm where possible)
Printlevel                                  ...      1
Contraction scheme used                     ... SEGMENTED contraction
Prescreening option                         ... SCHWARTZ
   Thresh                                   ... 1.000e-10
   Tcut                                     ... 1.000e-11
   Tpresel                                  ... 1.000e-11 
Coulomb Range Separation                    ... NOT USED
Exchange Range Separation                   ... NOT USED
Multipole approximations                    ... NOT USED
Finite Nucleus Model                        ... NOT USED
CABS basis                                  ... NOT available
Auxiliary Coulomb fitting basis             ... AVAILABLE
   # of basis functions in Aux-J            ...    300
   # of shells in Aux-J                     ...    100
   Maximum angular momentum in Aux-J        ...      4
Auxiliary J/K fitting basis                 ... NOT available
Auxiliary Correlation fitting basis         ... NOT available
Auxiliary 'external' fitting basis          ... NOT available

Checking pre-screening integrals            ... done (  0.0 sec) Dimension = 45
   => SHARK Basis and OBASIS are compatible. Storing Pre-screening
Shell pair information
Shell pair cut-off parameter TPreSel        ...   1.0e-11
Total number of shell pairs                 ...      1035
Shell pairs after pre-screening             ...      1004
Total number of primitive shell pairs       ...      5170
Primitive shell pairs kept                  ...      3704
          la=0 lb=0:    313 shell pairs
          la=1 lb=0:    362 shell pairs
          la=1 lb=1:    117 shell pairs
          la=2 lb=0:    123 shell pairs
          la=2 lb=1:     74 shell pairs
          la=2 lb=2:     15 shell pairs

Checking whether 4 symmetric matrices of dimension 95 fit in memory
:Max Core in MB      =   4096.00
 MB in use           =      4.69
 MB left             =   4091.31
 MB needed           =      0.14
 Data fit in memory  = YES
Calculating RI/J V-Matrix + Cholesky decomp.... done (  0.0 sec)
Calculating Nuclear repulsion               ... done (  0.0 sec) ENN=    180.509009692782 Eh

Diagonalization of the overlap matrix:
Smallest eigenvalue                        ... 4.282e-03
Time for diagonalization                   ...    0.001 sec
Threshold for overlap eigenvalues          ... 1.000e-07
Number of eigenvalues below threshold      ... 0
Time for construction of square roots      ...    0.000 sec
Total time needed                          ...    0.001 sec

-------------------
DFT GRID GENERATION
-------------------

General Integration Accuracy     IntAcc      ... 4.388
Radial Grid Type                 RadialGrid  ... OptM3 with GC (2021)
Angular Grid (max. ang.)         AngularGrid ... 4 (Lebedev-302)
Angular grid pruning method      GridPruning ... 4 (adaptive)
Weight generation scheme         WeightScheme... mBecke (2022)
Basis function cutoff            BFCut       ... 1.0000e-10
Integration weight cutoff        WCut        ... 1.0000e-14
Partially contracted basis set               ... off
Rotationally invariant grid construction     ... off
Angular grids for H and He will be reduced by one unit

Total number of grid points                  ...    46605
Total number of batches                      ...      733
Average number of points per batch           ...       63
Average number of grid points per atom       ...     4660
Grids setup in   0.1 sec
Initializing property integral containers    ... done (  0.0 sec)

SHARK setup successfully completed in   0.2 seconds

Maximum memory used throughout the entire STARTUP-calculation: 19.7 MB
-------------------------------------------------------------------------------
                                 ORCA GUESS
                   Start orbitals & Density for SCF / CASSCF
-------------------------------------------------------------------------------

------------
SCF SETTINGS
------------
Hamiltonian:
 Density Functional     Method          .... DFT(GTOs)
 Exchange Functional    Exchange        .... B97(D)
 Correlation Functional Correlation     .... B97(D)
 Gradients option       PostSCFGGA      .... off
 RI-approximation to the Coulomb term is turned on
   Number of AuxJ basis functions       .... 300


General Settings:
 Integral files         IntName         .... 5
 Hartree-Fock type      HFTyp           .... RHF
 Total Charge           Charge          ....    0
 Multiplicity           Mult            ....    1
 Number of Electrons    NEL             ....   40
 Basis Dimension        Dim             ....   95
 Nuclear Repulsion      ENuc            ....    180.5090096928 Eh

Convergence Acceleration:
 AO-DIIS                CNVDIIS         .... on
   Start iteration      DIISMaxIt       ....    12
   Startup error        DIISStart       ....  0.200000
   # of expansion vecs  DIISMaxEq       ....     5
   Bias factor          DIISBfac        ....   1.050
   Max. coefficient     DIISMaxC        ....  10.000
 MO-DIIS                CNVKDIIS        .... off
 Trust-Rad. Augm. Hess. CNVTRAH         .... auto
   Auto Start mean grad. ratio tolernc. ....  1.125000
   Auto Start start iteration           ....    50
   Auto Start num. interpolation iter.  ....    10
   Max. Number of Micro iterations      ....    24
   Max. Number of Macro iterations      .... Maxiter - #DIIS iter
   Number of Davidson start vectors     ....     2
   Converg. threshold    (grad. norm)   ....   5.000e-05
   Grad. Scal. Fac. for Micro threshold ....   0.100
   Minimum threshold for Micro iter.    ....   1.000e-02
   NR start threshold (gradient norm)   ....   1.000e-04
   Initial trust radius                 ....   0.400
   Minimum AH scaling param. (alpha)    ....   1.000
   Maximum AH scaling param. (alpha)    .... 1000.000
   Quad. conv. algorithm                .... NR
   White noise on init. David. guess    .... on
   Maximum white noise                  ....   0.010
   Pseudo random numbers                .... off
   Inactive MOs                         .... canonical
   Orbital update algorithm             .... Taylor
   Preconditioner                       .... Diag
   Full preconditioner red. dimension   ....   250
 SOSCF                 CNVSOSCF           .... on
   Start iteration     SOSCFMaxIt         ....   150
   Startup grad/error  SOSCFStart         ....  0.003300
   Hessian update      SOSCFHessUp        .... L-BFGS
   Autom. constraints  SOSCFAutoConstrain .... off
 Level Shifting         CNVShift        .... on
   Level shift para.    LevelShift      ....    0.2500
   Turn off err/grad.   ShiftErr        ....    0.0010
 Zerner damping         CNVZerner       .... off
 Static damping         CNVDamp         .... on
   Fraction old density DampFac         ....    0.7000
   Max. Damping (<1)    DampMax         ....    0.9800
   Min. Damping (>=0)   DampMin         ....    0.0000
   Turn off err/grad.   DampErr         ....    0.1000

SCF Procedure:
 Maximum # iterations   MaxIter         ....   125
 SCF integral mode      SCFMode         .... Direct
   Integral package                     .... SHARK and LIBINT hybrid scheme
 Reset frequency        DirectResetFreq ....    20
 Integral Threshold     Thresh          ....  1.000e-10 Eh
 Primitive CutOff       TCut            ....  1.000e-11 Eh

Convergence Tolerance:
 Convergence Check Mode ConvCheckMode   .... Total+1el-Energy
 Convergence forced     ConvForced      .... 0
 Energy Change          TolE            ....  1.000e-06 Eh
 1-El. energy change                    ....  1.000e-03 Eh
 Orbital Gradient       TolG            ....  5.000e-05
 Orbital Rotation angle TolX            ....  5.000e-05
 DIIS Error             TolErr          ....  1.000e-06

------------------------------
INITIAL GUESS: MODEL POTENTIAL
------------------------------
Loading Hartree-Fock densities                     ... done
Calculating cut-offs                               ... done
Initializing the effective Hamiltonian             ... done
Setting up the integral package (SHARK)            ... done
Starting the Coulomb interaction                   ... done (   0.0 sec)
Making the grid                                    ... done (   0.0 sec)
Mapping shells                                     ... done
Starting the XC term evaluation                    ... done (   0.0 sec)
  promolecular density results
     # of electrons  =     39.996840787
     EX              =    -34.199301475
     EC              =     -1.793556241
     EX+EC           =    -35.992857716
Transforming the Hamiltonian                       ... done (   0.0 sec)
Diagonalizing the Hamiltonian                      ... done (   0.0 sec)
Back transforming the eigenvectors                 ... done (   0.0 sec)
Now organizing SCF variables                       ... done
                      ------------------
                      INITIAL GUESS DONE (   0.1 sec)
                      ------------------
             **** ENERGY FILE WAS UPDATED (5.en.tmp) ****
Finished Guess after   0.1 sec
Maximum memory used throughout the entire GUESS-calculation: 8.1 MB

-------------------------------------------------------------------------------------------
                                      ORCA LEAN-SCF
                              memory conserving SCF solver
-------------------------------------------------------------------------------------------

----------------------------------------D-I-I-S--------------------------------------------
Iteration    Energy (Eh)           Delta-E    RMSDP     MaxDP     DIISErr   Damp  Time(sec)
-------------------------------------------------------------------------------------------
               ***  Starting incremental Fock matrix formation  ***
    1    -284.0131700864087634     0.00e+00  5.80e-03  1.07e-01  2.62e-01  0.700   0.1
    2    -284.1286144192358734    -1.15e-01  3.45e-03  5.52e-02  1.01e-01  0.700   0.1
                               ***Turning on AO-DIIS***
    3    -284.1615171636698278    -3.29e-02  1.22e-03  1.65e-02  3.27e-02  0.700   0.1
    4    -284.1841253251010357    -2.26e-02  1.57e-03  2.04e-02  1.39e-02  0.000   0.1
    5    -284.2375427101866308    -5.34e-02  5.77e-04  8.78e-03  1.18e-02  0.000   0.1
    6    -284.2380447704578046    -5.02e-04  2.16e-04  3.04e-03  3.55e-03  0.000   0.1
                              *** Initializing SOSCF ***
---------------------------------------S-O-S-C-F--------------------------------------
Iteration    Energy (Eh)           Delta-E    RMSDP     MaxDP     MaxGrad    Time(sec)
--------------------------------------------------------------------------------------
    7    -284.2380866058916808    -4.18e-05  7.88e-05  1.15e-03  9.07e-04     0.1
               *** Restarting incremental Fock matrix formation ***
    8    -284.2380919595378828    -5.35e-06  5.34e-05  6.72e-04  1.22e-04     0.1
    9    -284.2380921931543298    -2.34e-07  2.42e-05  3.74e-04  1.90e-04     0.1
                 **** Energy Check signals convergence ****

               *****************************************************
               *                     SUCCESS                       *
               *           SCF CONVERGED AFTER   9 CYCLES          *
               *****************************************************

             **** ENERGY FILE WAS UPDATED (5.en.tmp) ****

----------------
TOTAL SCF ENERGY
----------------

Total Energy       :       -284.23809242955531 Eh           -7734.51171 eV

Components:
Nuclear Repulsion  :        180.50900969278186 Eh            4911.89987 eV
Electronic Energy  :       -464.74710212233714 Eh          -12646.41158 eV
One Electron Energy:       -745.51388671131599 Eh          -20286.46420 eV
Two Electron Energy:        280.76678458897885 Eh            7640.05262 eV

Virial components:
Potential Energy   :       -567.02040369056408 Eh          -15429.40960 eV
Kinetic Energy     :        282.78231126100877 Eh            7694.89789 eV
Virial Ratio       :          2.00514806305265

DFT components:
N(Alpha)           :       20.000004183322 electrons
N(Beta)            :       20.000004183322 electrons
N(Total)           :       40.000008366643 electrons
E(X)               :      -34.934264433309 Eh       
E(C)               :       -1.783677225715 Eh       
E(XC)              :      -36.717941659023 Eh       

---------------
SCF CONVERGENCE
---------------

  Last Energy change         ...    2.3362e-07  Tolerance :   1.0000e-06
  Last MAX-Density change    ...    3.7379e-04  Tolerance :   1.0000e-05
  Last RMS-Density change    ...    2.4152e-05  Tolerance :   1.0000e-06
  Last DIIS Error            ...    9.0739e-04  Tolerance :   1.0000e-06
  Last Orbital Gradient      ...    1.8970e-04  Tolerance :   5.0000e-05
  Last Orbital Rotation      ...    3.8281e-04  Tolerance :   5.0000e-05


----------------
ORBITAL ENERGIES
----------------

  NO   OCC          E(Eh)            E(eV) 
   0   2.0000     -18.820911      -512.1430 
   1   2.0000     -18.752509      -510.2817 
   2   2.0000     -13.985393      -380.5619 
   3   2.0000     -10.036209      -273.0991 
   4   2.0000      -9.946811      -270.6665 
   5   2.0000      -1.025868       -27.9153 
   6   2.0000      -0.933817       -25.4104 
   7   2.0000      -0.809638       -22.0314 
   8   2.0000      -0.649444       -17.6723 
   9   2.0000      -0.566542       -15.4164 
  10   2.0000      -0.456565       -12.4238 
  11   2.0000      -0.436215       -11.8700 
  12   2.0000      -0.422008       -11.4834 
  13   2.0000      -0.394889       -10.7455 
  14   2.0000      -0.360976        -9.8226 
  15   2.0000      -0.355573        -9.6756 
  16   2.0000      -0.338614        -9.2142 
  17   2.0000      -0.276549        -7.5253 
  18   2.0000      -0.227092        -6.1795 
  19   2.0000      -0.187302        -5.0967 
  20   0.0000      -0.019547        -0.5319 
  21   0.0000       0.042946         1.1686 
  22   0.0000       0.077019         2.0958 
  23   0.0000       0.109886         2.9901 
  24   0.0000       0.138977         3.7818 
  25   0.0000       0.160895         4.3782 
  26   0.0000       0.195094         5.3088 
  27   0.0000       0.221768         6.0346 
  28   0.0000       0.272790         7.4230 
  29   0.0000       0.339028         9.2254 
  30   0.0000       0.501808        13.6549 
*Only the first 10 virtual orbitals were printed.

                    ********************************
                    * MULLIKEN POPULATION ANALYSIS *
                    ********************************

-----------------------
MULLIKEN ATOMIC CHARGES
-----------------------
   0 C :    0.497673
   1 O :   -0.410465
   2 O :   -0.461818
   3 C :   -0.137137
   4 H :    0.323595
   5 N :   -0.598550
   6 H :    0.151737
   7 H :    0.134380
   8 H :    0.242040
   9 H :    0.258545
Sum of atomic charges:   -0.0000000

--------------------------------
MULLIKEN REDUCED ORBITAL CHARGES
--------------------------------
  0 C s       :     2.983307  s :     2.983307
      pz      :     0.734858  p :     2.393442
      px      :     0.887861
      py      :     0.770723
      dz2     :     0.033120  d :     0.125578
      dxz     :     0.030345
      dyz     :     0.024842
      dx2y2   :     0.021240
      dxy     :     0.016032

  1 O s       :     3.857026  s :     3.857026
      pz      :     1.434261  p :     4.525185
      px      :     1.626502
      py      :     1.464421
      dz2     :     0.008409  d :     0.028255
      dxz     :     0.006549
      dyz     :     0.006010
      dx2y2   :     0.003297
      dxy     :     0.003991

  2 O s       :     3.819478  s :     3.819478
      pz      :     1.611170  p :     4.619930
      px      :     1.330842
      py      :     1.677919
      dz2     :     0.006410  d :     0.022410
      dxz     :     0.003885
      dyz     :     0.005304
      dx2y2   :     0.005587
      dxy     :     0.001224

  3 C s       :     3.205809  s :     3.205809
      pz      :     0.879010  p :     2.881724
      px      :     0.922184
      py      :     1.080529
      dz2     :     0.012002  d :     0.049605
      dxz     :     0.009031
      dyz     :     0.014155
      dx2y2   :     0.010455
      dxy     :     0.003961

  4 H s       :     0.638342  s :     0.638342
      pz      :     0.008084  p :     0.038063
      px      :     0.021274
      py      :     0.008705

  5 N s       :     3.592507  s :     3.592507
      pz      :     1.176131  p :     3.979295
      px      :     1.205955
      py      :     1.597209
      dz2     :     0.006870  d :     0.026748
      dxz     :     0.005848
      dyz     :     0.004018
      dx2y2   :     0.001250
      dxy     :     0.008763

  6 H s       :     0.837405  s :     0.837405
      pz      :     0.002125  p :     0.010858
      px      :     0.002430
      py      :     0.006304

  7 H s       :     0.854064  s :     0.854064
      pz      :     0.004377  p :     0.011556
      px      :     0.003271
      py      :     0.003908

  8 H s       :     0.733766  s :     0.733766
      pz      :     0.004815  p :     0.024195
      px      :     0.010027
      py      :     0.009353

  9 H s       :     0.716679  s :     0.716679
      pz      :     0.007811  p :     0.024776
      px      :     0.008843
      py      :     0.008122



                     *******************************
                     * LOEWDIN POPULATION ANALYSIS *
                     *******************************

----------------------
LOEWDIN ATOMIC CHARGES
----------------------
   0 C :    0.113976
   1 O :   -0.215274
   2 O :   -0.143530
   3 C :   -0.090195
   4 H :    0.185166
   5 N :   -0.277389
   6 H :    0.089245
   7 H :    0.085807
   8 H :    0.126045
   9 H :    0.126148

-------------------------------
LOEWDIN REDUCED ORBITAL CHARGES
-------------------------------
  0 C s       :     2.850887  s :     2.850887
      pz      :     0.907292  p :     2.737095
      px      :     1.002116
      py      :     0.827687
      dz2     :     0.078439  d :     0.298042
      dxz     :     0.073190
      dyz     :     0.063086
      dx2y2   :     0.049101
      dxy     :     0.034226

  1 O s       :     3.553507  s :     3.553507
      pz      :     1.489666  p :     4.603440
      px      :     1.646938
      py      :     1.466837
      dz2     :     0.014746  d :     0.058326
      dxz     :     0.017478
      dyz     :     0.012401
      dx2y2   :     0.006326
      dxy     :     0.007376

  2 O s       :     3.469747  s :     3.469747
      pz      :     1.620909  p :     4.623693
      px      :     1.340755
      py      :     1.662028
      dz2     :     0.012208  d :     0.050090
      dxz     :     0.009669
      dyz     :     0.011471
      dx2y2   :     0.012435
      dxy     :     0.004307

  3 C s       :     2.897511  s :     2.897511
      pz      :     0.976592  p :     3.082304
      px      :     1.014450
      py      :     1.091262
      dz2     :     0.027305  d :     0.110380
      dxz     :     0.020028
      dyz     :     0.029531
      dx2y2   :     0.025772
      dxy     :     0.007744

  4 H s       :     0.698698  s :     0.698698
      pz      :     0.023364  p :     0.116137
      px      :     0.068160
      py      :     0.024613

  5 N s       :     3.188489  s :     3.188489
      pz      :     1.229039  p :     4.033743
      px      :     1.217185
      py      :     1.587518
      dz2     :     0.015850  d :     0.055157
      dxz     :     0.015590
      dyz     :     0.007374
      dx2y2   :     0.001621
      dxy     :     0.014722

  6 H s       :     0.871751  s :     0.871751
      pz      :     0.006732  p :     0.039004
      px      :     0.007302
      py      :     0.024970

  7 H s       :     0.874810  s :     0.874810
      pz      :     0.016371  p :     0.039383
      px      :     0.009588
      py      :     0.013424

  8 H s       :     0.794364  s :     0.794364
      pz      :     0.013139  p :     0.079591
      px      :     0.033664
      py      :     0.032788

  9 H s       :     0.791081  s :     0.791081
      pz      :     0.026452  p :     0.082770
      px      :     0.030040
      py      :     0.026278



                      *****************************
                      * MAYER POPULATION ANALYSIS *
                      *****************************

  NA   - Mulliken gross atomic population
  ZA   - Total nuclear charge
  QA   - Mulliken gross atomic charge
  VA   - Mayer's total valence
  BVA  - Mayer's bonded valence
  FA   - Mayer's free valence

  ATOM       NA         ZA         QA         VA         BVA        FA
  0 C      5.5023     6.0000     0.4977     3.9811     3.9811    -0.0000
  1 O      8.4105     8.0000    -0.4105     2.1081     2.1081     0.0000
  2 O      8.4618     8.0000    -0.4618     2.0579     2.0579    -0.0000
  3 C      6.1371     6.0000    -0.1371     3.8500     3.8500     0.0000
  4 H      0.6764     1.0000     0.3236     0.9151     0.9151    -0.0000
  5 N      7.5986     7.0000    -0.5986     2.8348     2.8348    -0.0000
  6 H      0.8483     1.0000     0.1517     0.9378     0.9378     0.0000
  7 H      0.8656     1.0000     0.1344     0.9439     0.9439    -0.0000
  8 H      0.7580     1.0000     0.2420     0.9183     0.9183    -0.0000
  9 H      0.7415     1.0000     0.2585     0.9277     0.9277    -0.0000

  Mayer bond orders larger than 0.100000
B(  0-C ,  1-O ) :   1.9212 B(  0-C ,  2-O ) :   1.0860 B(  0-C ,  3-C ) :   0.9479 
B(  2-O ,  4-H ) :   0.8491 B(  3-C ,  5-N ) :   1.0065 B(  3-C ,  6-H ) :   0.9293 
B(  3-C ,  7-H ) :   0.9286 B(  5-N ,  8-H ) :   0.9130 B(  5-N ,  9-H ) :   0.8931 


-------
TIMINGS
-------

Total SCF time: 0 days 0 hours 0 min 1 sec 

Total time                  ....       1.372 sec
Sum of individual times     ....       1.245 sec  ( 90.7%)

SCF preparation             ....       0.021 sec  (  1.5%)
Fock matrix formation       ....       1.211 sec  ( 88.3%)
  Startup                   ....       0.000 sec  (  0.0% of F)
  Split-RI-J                ....       0.280 sec  ( 23.1% of F)
  XC integration            ....       1.051 sec  ( 86.8% of F)
    Basis function eval.    ....       0.349 sec  ( 33.2% of XC)
    Density eval.           ....       0.187 sec  ( 17.8% of XC)
    XC-Functional eval.     ....       0.272 sec  ( 25.9% of XC)
    XC-Potential eval.      ....       0.215 sec  ( 20.4% of XC)
Diagonalization             ....       0.000 sec  (  0.0%)
Density matrix formation    ....       0.001 sec  (  0.1%)
Total Energy calculation    ....       0.000 sec  (  0.0%)
Population analysis         ....       0.001 sec  (  0.1%)
Orbital Transformation      ....       0.001 sec  (  0.1%)
Orbital Orthonormalization  ....       0.000 sec  (  0.0%)
DIIS solution               ....       0.007 sec  (  0.5%)
SOSCF solution              ....       0.002 sec  (  0.1%)
Finished LeanSCF after   1.4 sec

Maximum memory used throughout the entire LEANSCF-calculation: 10.2 MB



-------------------------------------------------------------------------------
                          DFT DISPERSION CORRECTION                            
-------------------------------------------------------------------------------
Active option DFTDOPT                   ...         2   
Final C6-coefficient scaling factor     ...     1.250
Final VDW-radii scaling factor          ...     1.100
Damping factor alpha                    ...    20.000
-------------------------   ----------------
Dispersion correction           -0.006632696
-------------------------   ----------------


-------------------------   --------------------
FINAL SINGLE POINT ENERGY      -284.244725125668
-------------------------   --------------------


------------------------------------------------------------------------------
                              ORCA PROPERTY CALCULATIONS
------------------------------------------------------------------------------

GBWName                                 ... 5.gbw
Number of atoms                         ...     10
Number of basis functions               ...     95
Max core memory                         ...   4096 MB

Electric properties:
Dipole moment                           ... YES
Quadrupole moment                       ...  NO
Static polarizability (Dipole/Dipole)   ...  NO
Static polarizability (Dipole/Quad.)    ...  NO
Static polarizability (Quad./Quad.)     ...  NO
Static polarizability (Velocity)        ...  NO
Static hyperpolarizability              ...  NO

Atomic electric properties:
Dipole moment                           ...  NO
Quadrupole moment                       ...  NO
Static polarizability                   ...  NO

Choice of electric origin               ... Center of mass
Position of electric origin             ...    -9.417893    -0.447241    -4.383348

General magnetic properties:
Magnetizability                         ...  NO

EPR properties:
g-Tensor (aka g-matrix)                 ...  NO
Zero-Field splitting spin-orbit         ...  NO
Zero-field splitting spin-spin          ...  NO
Hyperfine couplings                     ...  NO (   0 nuclei)
Quadrupole couplings                    ...  NO (   0 nuclei)
Contact density                         ...  NO (   0 nuclei)

NMR properties:
Chemical shifts                         ...  NO (   0 nuclei)
Spin-rotation constants                 ...  NO (   0 nuclei)
Spin-spin couplings                     ...  NO (   0 nuclei,    0 pairs)

Choice of magnetic origin               ... GIAO
Position of magnetic origin             ...     0.000000     0.000000     0.000000

Properties with geometric perturbations:
SCF Hessian                             ...  NO
IR spectrum                             ...  NO
VCD spectrum                            ...  NO
X-ray spectroscopy properties:
SCF XES/XAS/RIXS spectra                ...  NO

SCF SOC stabilization energy            ...  NO
Diagonal Born-Oppenheimer correction    ...  NO

-------------
DIPOLE MOMENT
-------------

Method             : SCF
Type of density    : Electron Density
Multiplicity       :   1
Irrep              :   0
Energy             :  -284.2380924295553086 Eh
Basis              : AO
                                X                 Y                 Z
Electronic contribution:      3.740853866      -0.100896694       1.261692584
Nuclear contribution   :     -3.791449562       0.908258406      -1.627601156
                        -----------------------------------------
Total Dipole Moment    :     -0.050595695       0.807361712      -0.365908572
                        -----------------------------------------
Magnitude (a.u.)       :      0.887852432
Magnitude (Debye)      :      2.256741537



--------------------
Rotational spectrum 
--------------------
 
Rotational constants in cm-1:             0.336970             0.135817             0.099820 
Rotational constants in MHz :         10102.102477          4071.687270          2992.516832 

Dipole components along the rotational axes: 
x,y,z [a.u.] :     0.281663     0.647290    -0.538483 
x,y,z [Debye]:     0.715931     1.645280    -1.368714 

 

Dipole moment calculation done in   0.0 sec 

Maximum memory used throughout the entire PROP-calculation: 5.8 MB

--------------------------------
SUGGESTED CITATIONS FOR THIS RUN
--------------------------------

Below you find a list of papers that are relevant to this ORCA run
We neither can nor want to force you to cite these papers, but we appreciate if you do
You receive ORCA, which is the product of decades of hard work by many enthusiastic individuals, for free
The only thing we kindly ask in return is that you cite our papers,
We deeply appreciate it, if you show your appreciation for ORCA by not just citing the generic ORCA reference.

Please note that relegating all ORCA citations to the supporting information does *not* help us.
SI sections are not indexed - citations you put there will not count into any citation statistics
But we need these citations in order to attract the funding resources that allow us to do what we are doing

Therefore, if you are a happy ORCA user, please consider citing a few of the papers listed below in the main body of your paper

In addition to the list printed below, the program has created the file 5.bibtex that contains the list in bibtex format
You can import this file easily into all common literature databanks and citation aid programs


List of essential papers. We consider these as the minimum necessary citations

  1. Neese, F.
     Software update: the ORCA program system, version 6.0
     WIRES Comput. Molec. Sci. 2025 15(1), e70019
     doi.org/10.1002/wcms.7019

List of papers to cite with high priority. The work reported in these papers was absolutely
necessary for this run to complete.
Our perspective: the developers of density functionals and basis sets usually get cited in chemistry papers
Good! But without the algorithms to do something with them, the functionals or basis sets would not do anything.
Hence, in our opinion, the algorithm design and method developments papers are equally worthy of getting cited

  1. Neese, F.
     An improvement of the resolution of the identity approximation for the formation of the Coulomb matrix
     J. Comp. Chem. 2003 24(14), 1740-1747
     doi.org/10.1002/jcc.10318
  2. Grimme, S.
     Semiempirical GGA-type density functional constructed with a long-range dispersion correction
     J.Comput.Chem. 2006 27(15), 1787-1799
     doi.org/10.1002/jcc.20495
  3. Neese, F.
     The SHARK Integral Generation and Digestion System
     J. Comp. Chem. 2022 44(3), 381
     doi.org/10.1002/jcc.26942

List of suggested additional citations. These are papers that are important in the 'surrounding' of 
of this run, or papers that preceded the highly important papers. If you like your results we are grateful for a citation.

  1. Neese, F.
     The ORCA program system
     WIRES Comput. Molec. Sci. 2012 2(1), 73-78
     doi.org/10.1002/wcms.81
  2. Neese, F.
     Software update: the ORCA program system, version 4.0
     WIRES Comput. Molec. Sci. 2018 8(1), 1-6
     doi.org/10.1002/wcms.1327
  3. Neese, F.; Wennmohs, F.; Becker, U.; Riplinger, C.
     The ORCA quantum chemistry program package
     J. Chem. Phys. 2020 152(22), 224108
     doi.org/10.1063/5.0004608
  4. Neese, F.
     Software update: The ORCA program system—Version 5.0
     WIRES Comput. Molec. Sci. 2022 12(1), e1606
     doi.org/10.1002/wcms.1606

List of optional additional citations

  1. Neese, F.
     Approximate second-order SCF convergence for spin unrestricted wavefunctions
     Chem. Phys. Lett. 2000 325(1-3), 93-98
     doi.org/10.1016/s0009-2614(00)00662-x

Timings for individual modules:

Sum of individual times          ...        1.692 sec (=   0.028 min)
Startup calculation              ...        0.182 sec (=   0.003 min)  10.7 %
SCF iterations                   ...        1.483 sec (=   0.025 min)  87.7 %
Property calculations            ...        0.027 sec (=   0.000 min)   1.6 %
                             ****ORCA TERMINATED NORMALLY****
TOTAL RUN TIME: 0 days 0 hours 0 minutes 1 seconds 728 msec
