
                                 *****************
                                 * O   R   C   A *
                                 *****************

                                            #,                                       
                                            ###                                      
                                            ####                                     
                                            #####                                    
                                            ######                                   
                                           ########,                                 
                                     ,,################,,,,,                         
                               ,,#################################,,                 
                          ,,##########################################,,             
                       ,#########################################, ''#####,          
                    ,#############################################,,   '####,        
                  ,##################################################,,,,####,       
                ,###########''''           ''''###############################       
              ,#####''   ,,,,##########,,,,          '''####'''          '####       
            ,##' ,,,,###########################,,,                        '##       
           ' ,,###''''                  '''############,,,                           
         ,,##''                                '''############,,,,        ,,,,,,###''
      ,#''                                            '''#######################'''  
     '                                                          ''''####''''         
             ,#######,   #######,   ,#######,      ##                                
            ,#'     '#,  ##    ##  ,#'     '#,    #''#        ,####,    ,#,          
            ##       ##  ##   ,#'  ##            #'  '#       #'       ,# #          
            ##       ##  #######   ##           ,######,      #####,      #          
            '#,     ,#'  ##    ##  '#,     ,#' ,#      #,     #,   #      #          
             '#######'   ##     ##  '#######'  #'      '#     '####' #    #          



                #########################################################
                #                        -***-                          #
                #          Department of theory and spectroscopy        #
                #                                                       #
                #                      Frank Neese                      #
                #                                                       #
                #     Directorship, Architecture, Infrastructure        #
                #                    SHARK, DRIVERS                     #
                #        Core code/Algorithms in most modules           #
                #                                                       #
                #        Max Planck Institute fuer Kohlenforschung      #
                #                Kaiser Wilhelm Platz 1                 #
                #                 D-45470 Muelheim/Ruhr                 #
                #                      Germany                          #
                #                                                       #
                #                  All rights reserved                  #
                #                        -***-                          #
                #########################################################


                         Program Version 6.1.0  -  RELEASE   -
                                (GIT: $679e74b$)
                          ($2025-06-10 18:02:51 +0200$)


 With contributions from (in alphabetic order):
[Max-Planck-Institut fuer Kohlenforschung]                               
  Daniel Aravena         : Magnetic Suceptibility                        
  Michael Atanasov       : Ab Initio Ligand Field Theory (pilot matlab implementation)
  Alexander A. Auer      : GIAO ZORA, VPT2 properties, NMR spectrum      
  Ute Becker             : All parallelization in ORCA, NUMFREQ, NUMCALC 
  Giovanni Bistoni       : ED, misc. LED, open-shell LED, HFLD           
  Dmytro Bykov           : pre 5.0 version of the SCF Hessian            
  Marcos Casanova-Páez   : Triplet and SCS-CIS(D). UHF-(DLPNO)-IP/EA/STEOM-CCSD. UHF-CVS-IP/STEOM-CCSD   
  Vijay G. Chilkuri      : MRCI spin determinant printing, contributions to CSF-ICE 
  Pauline Colinet        : FMM embedding                                 
  Dipayan Datta          : RHF DLPNO-CCSD density                        
  Achintya Kumar Dutta   : EOM-CC, STEOM-CC                              
  Nicolas Foglia         : Exact transition moments, OPA infrastructure, MCD improvements    
  Dmitry Ganyushin       : Spin-Orbit,Spin-Spin,Magnetic field MRCI      
  Miquel Garcia-Rates    : C-PCM and meta-GGA Hessian, CCSD/C-PCM, Gaussian charge scheme 
  Tiago L. C. Gouveia    : GS-ROHF, GS-ROCIS                             
  Yang Guo               : DLPNO-NEVPT2, F12-NEVPT2, CIM, IAO-localization        
  Andreas Hansen         : Spin unrestricted coupled pair/coupled cluster methods 
  Ingolf Harden          : AUTO-CI MPn and infrastructure                
  Benjamin Helmich-Paris : MC-RPA, TRAH-(SCF,CASSCF), AVAS, COSX integrals, SCF dyn. polar., MC-PDFT, srDFT 
  Lee Huntington         : MR-EOM, pCC                                   
  Robert Izsak           : Overlap fitted RIJCOSX, COSX-SCS-MP3, EOM     
  Riya Kayal             : Wick's Theorem for AUTO-CI, AUTO-CI UHF-CCSDT 
  Emily Kempfer          : AUTO-CI RHF CISDT and CCSDT, approximate NEVPT4
  Christian Kollmar      : KDIIS, OOCD, Brueckner-CCSD(T), CCSD density, CASPT2, CASPT2-K, improved NEVPT2 
  Axel Koslowski         : Symmetry handling                             
  Simone Kossmann        : meta-GGA functionals, TD-DFT gradient, OOMP2, (MP2 Hessian; deprecated post 5.0) 
  Lucas Lang             : DCDCAS, Hyperfine gauge corrections, ICE-SOC+SSC
  Marvin Lechner         : AUTO-CI (C++ implementation), FIC-MRCC        
  Spencer Leger          : CASSCF response                               
  Dagmar Lenk            : GEPOL surface, SMD, ORCA-2-JSON               
  Dimitrios Liakos       : Extrapolation schemes; Compound Job, Property file
  Dimitrios Manganas     : Further ROCIS development; embedding schemes. LFT, Crystal Embedding 
  Dimitrios Pantazis     : SARC Basis sets                               
  Anastasios Papadopoulos: AUTO-CI, single reference methods and gradients 
  Taras Petrenko         : pre 6.0 DFT Hessian and TD-DFT gradient,  ECA, NRVS 
  Petra Pikulova         : Analytic Raman intensities                    
  Peter Pinski           : DLPNO-MP2, DLPNO-MP2 Gradient                 
  Shashank Vittal Rao    : ES-AILFT, MagRelax                            
  Christoph Reimann      : Effective Core Potentials                     
  Marius Retegan         : Local ZFS, SOC                                
  Christoph Riplinger    : Optimizer, TS searches, QM/MM, DLPNO-CCSD(T), (RO)-DLPNO pert. Triples 
  Michael Roemelt        : Original ROCIS implementation, recursive CI coupling coefficients
  Masaaki Saitow         : Open-shell DLPNO-CCSD energy and density      
  Barbara Sandhoefer     : DKH picture change effects                    
  Yorick L. A. Schmerwitz: GMF and freeze-and-release deltaSCF, NEB S-IDPP initial path                    
  Kantharuban Sivalingam : CASSCF convergence/infrastructure, NEVPT2, NEVPT3, NEVPT4(SD), FIC-MRCI and CEPA variants
  Bernardo de Souza      : ESD, SOC TD-DFT                               
  Georgi L. Stoychev     : AutoAux, RI-MP2 NMR, DLPNO-MP2 response, X2C  
  Van Anh Tran           : RI-MP2 g-tensors                              
  Willem Van den Heuvel  : Paramagnetic NMR                              
  Zikuan Wang            : NOTCH, Electric field optimization            
  Frank Wennmohs         : Technical directorship and infrastructure     
  Hang Xu                : AUTO-CI-Response properties                   
                                                                         
[FACCTs GmbH]                                                            
  Markus Bursch, Nicolas Foglia, Miquel Garcia-Rates, Ingolf Harden, Hagen Neugebauer, Anastasios Papadopoulos, 
  Christoph Riplinger, Bernardo de Souza, Georgi L. Stoychev                                                    
                                                                 
  APM, various basis sets, CI-OPT, improved COSX, DLPNO-Multilevel,           
  DOCKER, DRACO, updates on ESD, Fragmentator, GOAT, IRC, LR-CPCM, L-BFGS, MBIS, meta-GGA TD-DFT gradient, ML-optimized integration grids, 
  MM, NACMEs, nearIR, NEB, NEB-TS, NL-DFT gradient (VV10), 2- and 3-layer-ONIOM, interface openCOSMO-RS, QMMM,   
  Crystal-QMMM, RESP, rigid body optimization, SF, symmetry and pop. for TD-DFT, various functionals, SOLVATOR                                   
                                                                         
[Other institutions]                                                     
  V. Asgeirsson          : NEB                                           
  Christoph Bannwarth    : sTDA-DFT, sTD-DFT, PBEh-3c, B97-3c, D3        
  Giovanni Bistoni       : ETS/NOCV, ADLD/ADEX, COVALED                  
  Martin Brehm           : Molecular dynamics                            
  Ronald Cardenas        : ETS/NOCV                                      
  Martina Colucci        : COVALED                                       
  Sebastian Ehlert       : rSCAN, r2SCAN, r2SCAN-3c, D4, dhf basis sets  
  Marvin Friede          : D4 for Fr, Ra, Ac-Lr                          
  Lars Goerigk           : TD-DFT with DH, B97 family of functionals     
  Stefan Grimme          : VdW corrections, initial TS optimization, DFT functionals, gCP, sTDA/sTD-DF 
  Waldemar Hujo          : DFT-NL                                        
  H. Jonsson             : NEB                                           
  Holger Kruse           : gCP                                           
  Marcel Mueller         : wB97X-3c, vDZP basis set                      
  Hagen Neugebauer       : wr2SCAN, Native XTB                           
  Gianluca Regni         : ADLD/ADEX                                     
  Tobias Risthaus        : pre 6.0 range-separated hybrid DFT and stability analysis
  Lukas Wittmann         : regularized MP2, r2SCAN double-hybrids, wr2SCAN        
                                                                         
We gratefully acknowledge several colleagues who have allowed us to      
interface, adapt or use parts of their codes:                            
  Ed Valeev, F. Pavosevic, A. Kumar             : LibInt (2-el integral package), F12 methods 
  Garnet Chan, S. Sharma, J. Yang, R. Olivares  : DMRG                   
  Ulf Ekstrom                                   : XCFun DFT Library      
  Mihaly Kallay                                 : mrcc  (arbitrary order and MRCC methods)
  Frank Weinhold                                : gennbo (NPA and NBO analysis)           
  Simon Mueller                                 : openCOSMO-RS                            
  Christopher J. Cramer and Donald G. Truhlar   : smd solvation model                     
  S Lehtola, MJT Oliveira, MAL Marques          : LibXC Library                           
  Liviu Ungur et al                             : ANISO software                          


 Your calculation uses the libint2 library for the computation of 2-el integrals
 For citations please refer to: http://libint.valeyev.net

 Your ORCA version has been built with support for libXC version: 7.0.0
 For citations please refer to: https://libxc.gitlab.io

 This ORCA versions uses:
   CBLAS   interface :  Fast vector & matrix operations
   LAPACKE interface :  Fast linear algebra routines
   SCALAPACK package :  Parallel linear algebra routines
   Shared memory     :  Shared parallel matrices
   BLAS/LAPACK       :  OpenBLAS 0.3.29  USE64BITINT DYNAMIC_ARCH NO_AFFINITY Haswell SINGLE_THREADED
        Core in use  :  Haswell
   Copyright (c) 2011-2014, The OpenBLAS Project


  ***********************************
  * Starting time: Sun Aug 31 12:42:40 2025
  * Host name:     chemlab03
  * Process ID:    91549
  * Working dir.:  /home/vivek/mm-project/vivek/xtb-goat/MP2-opt/c/0
  ***********************************



***************************************
The coordinates will be read from file: /home/vivek/mm-project/vivek/xtb-goat/xtb-goat/c/C_CONF/0.xyz
***************************************


================================================================================

----- Orbital basis set information -----
Your calculation utilizes the basis: 6-31G**
   H-He, Li-Ne : W. J. Hehre, R. Ditchfield and J.A. Pople, J. Chem. Phys. 56, 2257 (1972).
                 Note: He and Ne are unpublished basis sets taken from the Gaussian program.
                 Note: Li and B from J. D. Dill and J. A. Pople, J. Chem. Phys. 62, 2921 (1975).
   Na - Ar     : M. M. Francl, W. J. Pietro, W. J. Hehre, J. S. Binkley, M. S. Gordon, 
                 D. J. DeFrees and J. A. Pople, J. Chem. Phys. 77, 3654 (1982).
   K - Zn      : V. A. Rassolov, J. A. Pople, M. A. Ratner, and T. L. Windus, J. Chem. Phys. 109, 1223 (1998).

================================================================================
                                        WARNINGS
                       Please study these warnings very carefully!
================================================================================


WARNING: The frozen-core approximation for MP2-gradient calculations is turned on by default.

WARNING: Geometry Optimization
  ===> : Switching off AutoStart
         For restart on a previous wavefunction, please use MOREAD

WARNING: Post HF methods need fully converged wavefunctions
  ===> : Setting SCFConvForced true
         You can overwrite this default with %scf ConvForced false 


================================================================================
                                       INPUT FILE
================================================================================
NAME = 0.inp
|  1> ! MP2 6-31G** opt
|  2> 
|  3> * xyzfile 0 1 /home/vivek/mm-project/vivek/xtb-goat/xtb-goat/c/C_CONF/0.xyz
|  4> 
|  5>                          ****END OF INPUT****
================================================================================

                       *****************************
                       * Geometry Optimization Run *
                       *****************************

Geometry optimization settings:
Update method            Update   .... BFGS
Choice of coordinates    CoordSys .... (2022) Redundant Internals
Initial Hessian          InHess   .... Almloef's Model
Max. no of cycles        MaxIter  .... 50

Convergence Tolerances:
Energy Change            TolE     ....  5.0000e-06 Eh
Max. Gradient            TolMAXG  ....  3.0000e-04 Eh/bohr
RMS Gradient             TolRMSG  ....  1.0000e-04 Eh/bohr
Max. Displacement        TolMAXD  ....  4.0000e-03 bohr
RMS Displacement         TolRMSD  ....  2.0000e-03 bohr
Strict Convergence                .... False

------------------------------------------------------------------------------
                        ORCA OPTIMIZATION COORDINATE SETUP
------------------------------------------------------------------------------

The optimization will be done in redundant internal coordinates (2022)
Making redundant internal coordinates   ...  (2022 redundants) done
Evaluating the initial hessian          ...  (Almloef) done
Evaluating the coordinates              ...  done
Calculating the B-matrix                .... done
Calculating the G-matrix                .... done
The number of degrees of freedom        ....   56

    -----------------------------------------------------------------
                    Redundant Internal Coordinates


    -----------------------------------------------------------------
         Definition                    Initial Value    Approx d2E/dq
    -----------------------------------------------------------------
      1. B(H   2,C   1)                  1.0884         0.362286   
      2. B(C   5,C   1)                  1.5325         0.370152   
      3. B(C   5,H   0)                  1.0949         0.353708   
      4. B(S   7,H   3)                  1.3300         0.402005   
      5. B(S   7,C   1)                  1.8216         0.345049   
      6. B(N   8,H   6)                  1.0136         0.426969   
      7. B(N   8,C   5)                  1.4485         0.451356   
      8. B(N   8,H   3)                  2.3407         0.010000   
      9. B(H   9,N   8)                  1.0167         0.422139   
     10. B(C  10,C   5)                  1.5272         0.377440   
     11. B(C  10,O   4)                  1.3332         0.689477   
     12. B(H  11,C   1)                  1.0910         0.358782   
     13. B(O  12,C  10)                  1.2017         1.117475   
     14. B(H  13,O   4)                  0.9714         0.498722   
     15. A(H   2,C   1,C   5)          110.9833         0.324151   
     16. A(H   2,C   1,H  11)          109.8632         0.290949   
     17. A(C   5,C   1,S   7)          110.4268         0.376780   
     18. A(H   2,C   1,S   7)          106.6090         0.336691   
     19. A(C   5,C   1,H  11)          110.4637         0.323634   
     20. A(S   7,C   1,H  11)          108.3897         0.336147   
     21. A(C  10,O   4,H  13)          110.9028         0.374251   
     22. A(C   1,C   5,N   8)          109.3244         0.372404   
     23. A(C   1,C   5,C  10)          107.7203         0.363419   
     24. A(H   0,C   5,N   8)          109.4932         0.331605   
     25. A(H   0,C   5,C  10)          108.7940         0.323913   
     26. A(N   8,C   5,C  10)          112.6464         0.373657   
     27. A(H   0,C   5,C   1)          108.7801         0.322879   
     28. A(C   1,S   7,H   3)           93.8179         0.367293   
     29. A(H   6,N   8,H   9)          107.1848         0.301418   
     30. A(C   5,N   8,H   9)          109.3263         0.338571   
     31. A(C   5,N   8,H   6)          110.8385         0.339214   
     32. A(O   4,C  10,C   5)          112.5074         0.402306   
     33. A(C   5,C  10,O  12)          123.9466         0.438491   
     34. A(O   4,C  10,O  12)          123.5418         0.486259   
     35. D(N   8,C   5,C   1,H   2)   -179.5154         0.010952   
     36. D(H   0,C   5,C   1,H   2)    -59.9943         0.010952   
     37. D(N   8,C   5,C   1,S   7)    -61.5123         0.010952   
     38. D(H   0,C   5,C   1,S   7)     58.0089         0.010952   
     39. D(H   0,C   5,C   1,H  11)    177.8964         0.010952   
     40. D(N   8,C   5,C   1,H  11)     58.3752         0.010952   
     41. D(H   3,S   7,C   1,H  11)    -75.3119         0.010000   
     42. D(H   3,S   7,C   1,C   5)     45.8170         0.010000   
     43. D(H   3,S   7,C   1,H   2)    166.4709         0.010000   
     44. D(H   9,N   8,C   5,C   1)    -72.8570         0.018636   
     45. D(H   9,N   8,C   5,H   0)    168.0628         0.018636   
     46. D(H   6,N   8,C   5,C  10)    -71.0721         0.018636   
     47. D(H   6,N   8,C   5,H   0)     50.1256         0.018636   
     48. D(H   9,N   8,C   5,C  10)     46.8651         0.018636   
     49. D(H   6,N   8,C   5,C   1)    169.2058         0.018636   
     50. D(O  12,C  10,C   5,C   1)    105.1973         0.010639   
     51. D(O  12,C  10,C   5,H   0)   -137.0442         0.010639   
     52. D(O   4,C  10,C   5,N   8)    165.2767         0.010639   
     53. D(O   4,C  10,C   5,C   1)    -74.0771         0.010639   
     54. D(O   4,C  10,C   5,H   0)     43.6814         0.010639   
     55. D(O  12,C  10,O   4,H  13)     -0.5389         0.035498   
     56. D(C   5,C  10,O   4,H  13)    178.7390         0.035498   
    -----------------------------------------------------------------

Number of atoms                         .... 14
Number of degrees of freedom            .... 56


         *************************************************************
         *                GEOMETRY OPTIMIZATION CYCLE   1            *
         *************************************************************
---------------------------------
CARTESIAN COORDINATES (ANGSTROEM)
---------------------------------
  H     -1.442345    2.082440    1.646858
  C     -2.904842    0.985021    0.513520
  H     -2.808970    0.069002    1.093374
  H     -4.011893    3.029491    0.580771
  O     -0.111764    0.025462    0.971106
  C     -1.625748    1.824809    0.598650
  H     -1.041076    3.689384    0.005527
  S     -4.314432    1.900622    1.215686
  N     -1.796367    3.037786   -0.174506
  H     -1.768451    2.811914   -1.165438
  C     -0.469825    0.963612    0.094152
  H     -3.134294    0.743766   -0.525433
  O      0.052695    1.103547   -0.978957
  H      0.610578   -0.520322    0.619163

----------------------------
CARTESIAN COORDINATES (A.U.)
----------------------------
  NO LB      ZA    FRAG     MASS         X           Y           Z
   0 H     1.0000    0     1.008   -2.725637    3.935241    3.112111
   1 C     6.0000    0    12.011   -5.489356    1.861419    0.970413
   2 H     1.0000    0     1.008   -5.308184    0.130396    2.066177
   3 H     1.0000    0     1.008   -7.581379    5.724909    1.097499
   4 O     8.0000    0    15.999   -0.211204    0.048115    1.835125
   5 C     6.0000    0    12.011   -3.072218    3.448389    1.131284
   6 H     1.0000    0     1.008   -1.967349    6.971925    0.010444
   7 S    16.0000    0    32.060   -8.153095    3.591655    2.297313
   8 N     7.0000    0    14.007   -3.394641    5.740584   -0.329768
   9 H     1.0000    0     1.008   -3.341888    5.313747   -2.202358
  10 C     6.0000    0    12.011   -0.887841    1.820963    0.177921
  11 H     1.0000    0     1.008   -5.922958    1.405515   -0.992925
  12 O     8.0000    0    15.999    0.099579    2.085402   -1.849960
  13 H     1.0000    0     1.008    1.153824   -0.983265    1.170049

--------------------------------
INTERNAL COORDINATES (ANGSTROEM)
--------------------------------
 H      0   0   0     0.000000000000     0.00000000     0.00000000
 C      1   0   0     2.151204606006     0.00000000     0.00000000
 H      2   1   0     1.088352282913    95.09380855     0.00000000
 H      2   1   3     2.325929134244    81.94863680   139.85533291
 O      1   2   3     2.541307794758    78.63543150    54.41794084
 C      1   2   3     1.094875031533    42.41278861   125.73233856
 H      6   1   2     2.042125289346    90.87423687   140.27420648
 S      4   2   1     1.330034588344    51.39282899   251.24791388
 N      7   6   1     1.013634668511    41.52285283   226.34804532
 H      9   7   6     1.016731570359   107.18477146   240.76627740
 C      5   1   2     1.333185278806    57.63643890    70.55802219
 H      2   1   3     1.090997850954   139.24407203   231.24798423
 O     11   5   1     1.201736604104   123.54180231   161.24143421
 H      5   1   2     0.971350175442   160.13573280   129.82914282

---------------------------
INTERNAL COORDINATES (A.U.)
---------------------------
 H      0   0   0     0.000000000000     0.00000000     0.00000000
 C      1   0   0     4.065187563381     0.00000000     0.00000000
 H      2   1   0     2.056687751934    95.09380855     0.00000000
 H      2   1   3     4.395369070630    81.94863680   139.85533291
 O      1   2   3     4.802375754092    78.63543150    54.41794084
 C      1   2   3     2.069013960465    42.41278861   125.73233856
 H      6   1   2     3.859057528018    90.87423687   140.27420648
 S      4   2   1     2.513401120613    51.39282899   251.24791388
 N      7   6   1     1.915491923333    41.52285283   226.34804532
 H      9   7   6     1.921344219690   107.18477146   240.76627740
 C      5   1   2     2.519355062718    57.63643890    70.55802219
 H      2   1   3     2.061687150999   139.24407203   231.24798423
 O     11   5   1     2.270953066865   123.54180231   161.24143421
 H      5   1   2     1.835585811721   160.13573280   129.82914282

---------------------
BASIS SET INFORMATION
---------------------
There are 5 groups of distinct atoms

 Group   1 Type H   : 4s1p contracted to 2s1p pattern {31/1}
 Group   2 Type C   : 10s4p1d contracted to 3s2p1d pattern {631/31/1}
 Group   3 Type O   : 10s4p1d contracted to 3s2p1d pattern {631/31/1}
 Group   4 Type S   : 16s10p1d contracted to 4s3p1d pattern {6631/631/1}
 Group   5 Type N   : 10s4p1d contracted to 3s2p1d pattern {631/31/1}

Atom   0H    basis set group =>   1
Atom   1C    basis set group =>   2
Atom   2H    basis set group =>   1
Atom   3H    basis set group =>   1
Atom   4O    basis set group =>   3
Atom   5C    basis set group =>   2
Atom   6H    basis set group =>   1
Atom   7S    basis set group =>   4
Atom   8N    basis set group =>   5
Atom   9H    basis set group =>   1
Atom  10C    basis set group =>   2
Atom  11H    basis set group =>   1
Atom  12O    basis set group =>   3
Atom  13H    basis set group =>   1
------------------------------------------------------------------------------
                             ORCA STARTUP CALCULATIONS
------------------------------------------------------------------------------
------------------------------------------------------------------------------
                   ___                                                        
                  /   \      - P O W E R E D   B Y -                         
                 /     \                                                     
                 |  |  |   _    _      __       _____    __    __             
                 |  |  |  | |  | |    /  \     |  _  \  |  |  /  |          
                  \  \/   | |  | |   /    \    | | | |  |  | /  /          
                 / \  \   | |__| |  /  /\  \   | |_| |  |  |/  /          
                |  |  |   |  __  | /  /__\  \  |    /   |      \           
                |  |  |   | |  | | |   __   |  |    \   |  |\   \          
                \     /   | |  | | |  |  |  |  | |\  \  |  | \   \       
                 \___/    |_|  |_| |__|  |__|  |_| \__\ |__|  \__/        
                                                                              
                      - O R C A' S   B I G   F R I E N D -                    
                                      &                                       
                       - I N T E G R A L  F E E D E R -                       
                                                                              
 v1 FN, 2020, v2 2021, v3 2022-2024                                           
------------------------------------------------------------------------------


----------------------
SHARK INTEGRAL PACKAGE
----------------------

Number of atoms                             ...     14
Number of basis functions                   ...    137
Number of shells                            ...     65
Maximum angular momentum                    ...      2
Integral batch strategy                     ... SHARK/LIBINT Hybrid
RI-J (if used) integral strategy            ... SPLIT-RIJ (Revised 2003 algorithm where possible)
Printlevel                                  ...      1
Contraction scheme used                     ... SEGMENTED contraction
Prescreening option                         ... SCHWARTZ
   Thresh                                   ... 2.500e-11
   Tcut                                     ... 2.500e-12
   Tpresel                                  ... 2.500e-12 
Coulomb Range Separation                    ... NOT USED
Exchange Range Separation                   ... NOT USED
Multipole approximations                    ... NOT USED
Finite Nucleus Model                        ... NOT USED
CABS basis                                  ... NOT available
Auxiliary Coulomb fitting basis             ... NOT available
Auxiliary J/K fitting basis                 ... NOT available
Auxiliary Correlation fitting basis         ... NOT available
Auxiliary 'external' fitting basis          ... NOT available

Checking pre-screening integrals            ... done (  0.0 sec) Dimension = 65
   => SHARK Basis and OBASIS are compatible. Storing Pre-screening
Shell pair information
Shell pair cut-off parameter TPreSel        ...   2.5e-12
Total number of shell pairs                 ...      2145
Shell pairs after pre-screening             ...      2013
Total number of primitive shell pairs       ...     11826
Primitive shell pairs kept                  ...      7490
          la=0 lb=0:    619 shell pairs
          la=1 lb=0:    741 shell pairs
          la=1 lb=1:    240 shell pairs
          la=2 lb=0:    238 shell pairs
          la=2 lb=1:    147 shell pairs
          la=2 lb=2:     28 shell pairs

Checking whether 4 symmetric matrices of dimension 137 fit in memory
:Max Core in MB      =   4096.00
 MB in use           =      4.09
 MB left             =   4091.91
 MB needed           =      0.29
 Data fit in memory  = YES
Calculating Nuclear repulsion               ... done (  0.0 sec) ENN=    376.584038281029 Eh

Diagonalization of the overlap matrix:
Smallest eigenvalue                        ... 3.395e-03
Time for diagonalization                   ...    0.001 sec
Threshold for overlap eigenvalues          ... 1.000e-07
Number of eigenvalues below threshold      ... 0
Time for construction of square roots      ...    0.000 sec
Total time needed                          ...    0.001 sec

-------------------
DFT GRID GENERATION
-------------------

General Integration Accuracy     IntAcc      ... 4.388
Radial Grid Type                 RadialGrid  ... OptM3 with GC (2021)
Angular Grid (max. ang.)         AngularGrid ... 4 (Lebedev-302)
Angular grid pruning method      GridPruning ... 4 (adaptive)
Weight generation scheme         WeightScheme... mBecke (2022)
Basis function cutoff            BFCut       ... 1.0000e-11
Integration weight cutoff        WCut        ... 1.0000e-14
Partially contracted basis set               ... off
Rotationally invariant grid construction     ... off
Angular grids for H and He will be reduced by one unit

Total number of grid points                  ...    66166
Total number of batches                      ...     1041
Average number of points per batch           ...       63
Average number of grid points per atom       ...     4726
Grids setup in   0.2 sec
Initializing property integral containers    ... done (  0.0 sec)

SHARK setup successfully completed in   0.3 seconds

Maximum memory used throughout the entire STARTUP-calculation: 25.8 MB
-------------------------------------------------------------------------------
                                 ORCA GUESS
                   Start orbitals & Density for SCF / CASSCF
-------------------------------------------------------------------------------

------------
SCF SETTINGS
------------
Hamiltonian:
 Ab initio Hamiltonian  Method          .... Hartree-Fock(GTOs)


General Settings:
 Integral files         IntName         .... 0
 Hartree-Fock type      HFTyp           .... RHF
 Total Charge           Charge          ....    0
 Multiplicity           Mult            ....    1
 Number of Electrons    NEL             ....   64
 Basis Dimension        Dim             ....  137
 Nuclear Repulsion      ENuc            ....    376.5840382810 Eh

Convergence Acceleration:
 AO-DIIS                CNVDIIS         .... on
   Start iteration      DIISMaxIt       ....    12
   Startup error        DIISStart       ....  0.200000
   # of expansion vecs  DIISMaxEq       ....     5
   Bias factor          DIISBfac        ....   1.050
   Max. coefficient     DIISMaxC        ....  10.000
 MO-DIIS                CNVKDIIS        .... off
 Trust-Rad. Augm. Hess. CNVTRAH         .... auto
   Auto Start mean grad. ratio tolernc. ....  1.125000
   Auto Start start iteration           ....    50
   Auto Start num. interpolation iter.  ....    10
   Max. Number of Micro iterations      ....    24
   Max. Number of Macro iterations      .... Maxiter - #DIIS iter
   Number of Davidson start vectors     ....     2
   Converg. threshold    (grad. norm)   ....   1.000e-05
   Grad. Scal. Fac. for Micro threshold ....   0.100
   Minimum threshold for Micro iter.    ....   1.000e-02
   NR start threshold (gradient norm)   ....   1.000e-04
   Initial trust radius                 ....   0.400
   Minimum AH scaling param. (alpha)    ....   1.000
   Maximum AH scaling param. (alpha)    .... 1000.000
   Quad. conv. algorithm                .... NR
   White noise on init. David. guess    .... on
   Maximum white noise                  ....   0.010
   Pseudo random numbers                .... off
   Inactive MOs                         .... canonical
   Orbital update algorithm             .... Taylor
   Preconditioner                       .... Diag
   Full preconditioner red. dimension   ....   250
 SOSCF                 CNVSOSCF           .... on
   Start iteration     SOSCFMaxIt         ....   150
   Startup grad/error  SOSCFStart         ....  0.003300
   Hessian update      SOSCFHessUp        .... L-BFGS
   Autom. constraints  SOSCFAutoConstrain .... off
 Level Shifting         CNVShift        .... on
   Level shift para.    LevelShift      ....    0.2500
   Turn off err/grad.   ShiftErr        ....    0.0010
 Zerner damping         CNVZerner       .... off
 Static damping         CNVDamp         .... on
   Fraction old density DampFac         ....    0.7000
   Max. Damping (<1)    DampMax         ....    0.9800
   Min. Damping (>=0)   DampMin         ....    0.0000
   Turn off err/grad.   DampErr         ....    0.1000

SCF Procedure:
 Maximum # iterations   MaxIter         ....   125
 SCF integral mode      SCFMode         .... Direct
   Integral package                     .... SHARK and LIBINT hybrid scheme
 Reset frequency        DirectResetFreq ....    20
 Integral Threshold     Thresh          ....  2.500e-11 Eh
 Primitive CutOff       TCut            ....  2.500e-12 Eh

Convergence Tolerance:
 Convergence Check Mode ConvCheckMode   .... Total+1el-Energy
 Convergence forced     ConvForced      .... 1
 Energy Change          TolE            ....  1.000e-08 Eh
 1-El. energy change                    ....  1.000e-05 Eh
 Orbital Gradient       TolG            ....  1.000e-05
 Orbital Rotation angle TolX            ....  1.000e-05
 DIIS Error             TolErr          ....  5.000e-07

------------------------------
INITIAL GUESS: MODEL POTENTIAL
------------------------------
Loading Hartree-Fock densities                     ... done
Calculating cut-offs                               ... done
Initializing the effective Hamiltonian             ... done
Setting up the integral package (SHARK)            ... done
Starting the Coulomb interaction                   ... done (   0.0 sec)
Making the grid                                    ... done (   0.1 sec)
Mapping shells                                     ... done
Starting the XC term evaluation                    ... done (   0.0 sec)
Transforming the Hamiltonian                       ... done (   0.0 sec)
Diagonalizing the Hamiltonian                      ... done (   0.0 sec)
Back transforming the eigenvectors                 ... done (   0.0 sec)
Now organizing SCF variables                       ... done
                      ------------------
                      INITIAL GUESS DONE (   0.1 sec)
                      ------------------
             **** ENERGY FILE WAS UPDATED (0.en.tmp) ****
Finished Guess after   0.1 sec
Maximum memory used throughout the entire GUESS-calculation: 8.3 MB

-------------------------------------------------------------------------------------------
                                      ORCA LEAN-SCF
                              memory conserving SCF solver
-------------------------------------------------------------------------------------------

----------------------------------------D-I-I-S--------------------------------------------
Iteration    Energy (Eh)           Delta-E    RMSDP     MaxDP     DIISErr   Damp  Time(sec)
-------------------------------------------------------------------------------------------
               ***  Starting incremental Fock matrix formation  ***
    1    -719.1144412115912701     0.00e+00  2.84e-03  6.54e-02  2.44e-01  0.700   0.8
    2    -719.2143017279798869    -9.99e-02  2.12e-03  4.67e-02  1.48e-01  0.700   0.8
                               ***Turning on AO-DIIS***
    3    -719.2720928325560408    -5.78e-02  1.17e-03  2.89e-02  8.15e-02  0.700   0.8
    4    -719.3085923585716728    -3.65e-02  2.71e-03  6.84e-02  5.56e-02  0.000   0.8
    5    -719.3905070012812075    -8.19e-02  3.32e-04  4.31e-03  4.87e-03  0.000   0.8
                              *** Initializing SOSCF ***
---------------------------------------S-O-S-C-F--------------------------------------
Iteration    Energy (Eh)           Delta-E    RMSDP     MaxDP     MaxGrad    Time(sec)
--------------------------------------------------------------------------------------
    6    -719.3909213373070770    -4.14e-04  1.70e-04  2.27e-03  2.13e-03     0.7
               *** Restarting incremental Fock matrix formation ***
    7    -719.3910172399456542    -9.59e-05  1.03e-04  1.52e-03  1.39e-03     0.8
    8    -719.3910464660697244    -2.92e-05  1.11e-04  1.77e-03  3.82e-04     0.7
    9    -719.3910563636078450    -9.90e-06  2.18e-05  3.12e-04  2.13e-04     0.7
   10    -719.3910573168253677    -9.53e-07  7.44e-06  1.09e-04  5.17e-05     0.7
   11    -719.3910574180168851    -1.01e-07  3.15e-06  5.62e-05  1.77e-05     0.6
   12    -719.3910574315810891    -1.36e-08  7.01e-07  1.72e-05  9.89e-06     0.6
   13    -719.3910574328414214    -1.26e-09  1.90e-07  4.29e-06  1.29e-06     0.5
                 **** Energy Check signals convergence ****

               *****************************************************
               *                     SUCCESS                       *
               *           SCF CONVERGED AFTER  13 CYCLES          *
               *****************************************************

             **** ENERGY FILE WAS UPDATED (0.en.tmp) ****

----------------
TOTAL SCF ENERGY
----------------

Total Energy       :       -719.39105743378707 Eh          -19575.62588 eV

Components:
Nuclear Repulsion  :        376.58403828102917 Eh           10247.37265 eV
Electronic Energy  :      -1095.97509571481623 Eh          -29822.99853 eV
One Electron Energy:      -1737.90698184123471 Eh          -47290.85320 eV
Two Electron Energy:        641.93188612641848 Eh           17467.85467 eV

Virial components:
Potential Energy   :      -1438.48511753270759 Eh          -39143.17005 eV
Kinetic Energy     :        719.09406009892052 Eh           19567.54417 eV
Virial Ratio       :          2.00041301597572

---------------
SCF CONVERGENCE
---------------

  Last Energy change         ...    1.2603e-09  Tolerance :   1.0000e-08
  Last MAX-Density change    ...    4.2860e-06  Tolerance :   1.0000e-07
  Last RMS-Density change    ...    1.8998e-07  Tolerance :   5.0000e-09
  Last DIIS Error            ...    2.1268e-03  Tolerance :   5.0000e-07
  Last Orbital Gradient      ...    1.2936e-06  Tolerance :   1.0000e-05
  Last Orbital Rotation      ...    9.3074e-07  Tolerance :   1.0000e-05


----------------
ORBITAL ENERGIES
----------------

  NO   OCC          E(Eh)            E(eV) 
   0   2.0000     -91.924576     -2501.3949 
   1   2.0000     -20.630166      -561.3754 
   2   2.0000     -20.565896      -559.6265 
   3   2.0000     -15.563204      -423.4963 
   4   2.0000     -11.394803      -310.0684 
   5   2.0000     -11.290526      -307.2308 
   6   2.0000     -11.270751      -306.6927 
   7   2.0000      -8.941350      -243.3065 
   8   2.0000      -6.623538      -180.2356 
   9   2.0000      -6.622296      -180.2018 
  10   2.0000      -6.620122      -180.1427 
  11   2.0000      -1.481512       -40.3140 
  12   2.0000      -1.375713       -37.4351 
  13   2.0000      -1.215090       -33.0643 
  14   2.0000      -1.061362       -28.8811 
  15   2.0000      -0.968894       -26.3650 
  16   2.0000      -0.862099       -23.4589 
  17   2.0000      -0.809978       -22.0406 
  18   2.0000      -0.723369       -19.6839 
  19   2.0000      -0.711259       -19.3543 
  20   2.0000      -0.689729       -18.7685 
  21   2.0000      -0.643084       -17.4992 
  22   2.0000      -0.621656       -16.9161 
  23   2.0000      -0.601134       -16.3577 
  24   2.0000      -0.573681       -15.6107 
  25   2.0000      -0.533754       -14.5242 
  26   2.0000      -0.521952       -14.2030 
  27   2.0000      -0.493360       -13.4250 
  28   2.0000      -0.480841       -13.0844 
  29   2.0000      -0.438397       -11.9294 
  30   2.0000      -0.416616       -11.3367 
  31   2.0000      -0.350895        -9.5483 
  32   0.0000       0.157040         4.2733 
  33   0.0000       0.199362         5.4249 
  34   0.0000       0.212090         5.7713 
  35   0.0000       0.236788         6.4433 
  36   0.0000       0.252972         6.8837 
  37   0.0000       0.261402         7.1131 
  38   0.0000       0.287958         7.8357 
  39   0.0000       0.308730         8.4010 
  40   0.0000       0.326492         8.8843 
  41   0.0000       0.378758        10.3065 
  42   0.0000       0.399053        10.8588 
*Only the first 10 virtual orbitals were printed.

                    ********************************
                    * MULLIKEN POPULATION ANALYSIS *
                    ********************************

-----------------------
MULLIKEN ATOMIC CHARGES
-----------------------
   0 H :    0.178884
   1 C :   -0.384837
   2 H :    0.176680
   3 H :    0.097873
   4 O :   -0.632345
   5 C :   -0.034921
   6 H :    0.285172
   7 S :   -0.027613
   8 N :   -0.691699
   9 H :    0.291792
  10 C :    0.784337
  11 H :    0.159868
  12 O :   -0.579310
  13 H :    0.376119
Sum of atomic charges:    0.0000000

--------------------------------
MULLIKEN REDUCED ORBITAL CHARGES
--------------------------------
  0 H s       :     0.808872  s :     0.808872
      pz      :     0.009048  p :     0.012244
      px      :     0.001668
      py      :     0.001529

  1 C s       :     3.309657  s :     3.309657
      pz      :     1.097346  p :     3.027144
      px      :     0.900404
      py      :     1.029394
      dz2     :     0.012406  d :     0.048036
      dxz     :     0.006051
      dyz     :     0.009996
      dx2y2   :     0.008863
      dxy     :     0.010720

  2 H s       :     0.810353  s :     0.810353
      pz      :     0.003904  p :     0.012967
      px      :     0.001745
      py      :     0.007318

  3 H s       :     0.883493  s :     0.883493
      pz      :     0.005815  p :     0.018635
      px      :     0.003717
      py      :     0.009103

  4 O s       :     3.835882  s :     3.835882
      pz      :     1.673085  p :     4.771049
      px      :     1.599276
      py      :     1.498688
      dz2     :     0.004519  d :     0.025414
      dxz     :     0.005946
      dyz     :     0.009315
      dx2y2   :     0.002498
      dxy     :     0.003135

  5 C s       :     3.205026  s :     3.205026
      pz      :     1.023987  p :     2.759326
      px      :     0.918492
      py      :     0.816846
      dz2     :     0.016239  d :     0.070569
      dxz     :     0.006566
      dyz     :     0.014937
      dx2y2   :     0.010550
      dxy     :     0.022276

  6 H s       :     0.688636  s :     0.688636
      pz      :     0.004344  p :     0.026192
      px      :     0.011600
      py      :     0.010247

  7 S s       :     5.841552  s :     5.841552
      pz      :     3.671108  p :    10.117725
      px      :     3.397129
      py      :     3.049489
      dz2     :     0.003805  d :     0.068335
      dxz     :     0.010105
      dyz     :     0.020526
      dx2y2   :     0.016807
      dxy     :     0.017092

  8 N s       :     3.602096  s :     3.602096
      pz      :     1.204126  p :     4.055737
      px      :     1.630744
      py      :     1.220867
      dz2     :     0.011200  d :     0.033866
      dxz     :     0.001728
      dyz     :     0.007295
      dx2y2   :     0.005072
      dxy     :     0.008570

  9 H s       :     0.682164  s :     0.682164
      pz      :     0.015422  p :     0.026044
      px      :     0.006259
      py      :     0.004363

 10 C s       :     2.945310  s :     2.945310
      pz      :     0.683765  p :     2.123250
      px      :     0.758361
      py      :     0.681125
      dz2     :     0.035619  d :     0.147102
      dxz     :     0.033611
      dyz     :     0.044255
      dx2y2   :     0.017217
      dxy     :     0.016401

 11 H s       :     0.827447  s :     0.827447
      pz      :     0.008670  p :     0.012684
      px      :     0.002040
      py      :     0.001974

 12 O s       :     3.872358  s :     3.872358
      pz      :     1.401908  p :     4.674033
      px      :     1.584345
      py      :     1.687780
      dz2     :     0.012153  d :     0.032919
      dxz     :     0.009023
      dyz     :     0.007487
      dx2y2   :     0.001876
      dxy     :     0.002379

 13 H s       :     0.582329  s :     0.582329
      pz      :     0.009017  p :     0.041551
      px      :     0.018749
      py      :     0.013785



                     *******************************
                     * LOEWDIN POPULATION ANALYSIS *
                     *******************************

----------------------
LOEWDIN ATOMIC CHARGES
----------------------
   0 H :    0.090495
   1 C :   -0.209083
   2 H :    0.089607
   3 H :    0.049977
   4 O :   -0.204348
   5 C :   -0.031486
   6 H :    0.135865
   7 S :    0.013243
   8 N :   -0.273880
   9 H :    0.138982
  10 C :    0.225589
  11 H :    0.076099
  12 O :   -0.305546
  13 H :    0.204486

-------------------------------
LOEWDIN REDUCED ORBITAL CHARGES
-------------------------------
  0 H s       :     0.869071  s :     0.869071
      pz      :     0.027287  p :     0.040434
      px      :     0.006705
      py      :     0.006442

  1 C s       :     2.941260  s :     2.941260
      pz      :     1.100991  p :     3.178859
      px      :     1.005789
      py      :     1.072078
      dz2     :     0.021555  d :     0.088965
      dxz     :     0.012260
      dyz     :     0.016711
      dx2y2   :     0.016972
      dxy     :     0.021466

  2 H s       :     0.867903  s :     0.867903
      pz      :     0.012933  p :     0.042491
      px      :     0.006546
      py      :     0.023011

  3 H s       :     0.898457  s :     0.898457
      pz      :     0.016312  p :     0.051565
      px      :     0.010167
      py      :     0.025086

  4 O s       :     3.455153  s :     3.455153
      pz      :     1.658965  p :     4.700762
      px      :     1.559591
      py      :     1.482206
      dz2     :     0.008214  d :     0.048434
      dxz     :     0.008524
      dyz     :     0.016385
      dx2y2   :     0.005209
      dxy     :     0.010103

  5 C s       :     2.872274  s :     2.872274
      pz      :     1.041772  p :     3.017195
      px      :     1.014806
      py      :     0.960617
      dz2     :     0.030163  d :     0.142017
      dxz     :     0.012788
      dyz     :     0.029346
      dx2y2   :     0.022190
      dxy     :     0.047530

  6 H s       :     0.781829  s :     0.781829
      pz      :     0.013295  p :     0.082306
      px      :     0.038539
      py      :     0.030472

  7 S s       :     5.623377  s :     5.623377
      pz      :     3.708277  p :    10.287612
      px      :     3.472074
      py      :     3.107261
      dz2     :     0.004566  d :     0.075768
      dxz     :     0.011545
      dyz     :     0.021509
      dx2y2   :     0.018348
      dxy     :     0.019800

  8 N s       :     3.185032  s :     3.185032
      pz      :     1.200040  p :     4.028603
      px      :     1.583790
      py      :     1.244773
      dz2     :     0.019909  d :     0.060245
      dxz     :     0.002620
      dyz     :     0.014309
      dx2y2   :     0.008680
      dxy     :     0.014727

  9 H s       :     0.778492  s :     0.778492
      pz      :     0.046935  p :     0.082526
      px      :     0.021163
      py      :     0.014428

 10 C s       :     2.846198  s :     2.846198
      pz      :     0.933737  p :     2.608965
      px      :     0.862147
      py      :     0.813081
      dz2     :     0.077417  d :     0.319248
      dxz     :     0.072159
      dyz     :     0.100026
      dx2y2   :     0.036897
      dxy     :     0.032749

 11 H s       :     0.881609  s :     0.881609
      pz      :     0.026638  p :     0.042293
      px      :     0.007594
      py      :     0.008061

 12 O s       :     3.547594  s :     3.547594
      pz      :     1.471043  p :     4.700276
      px      :     1.575944
      py      :     1.653288
      dz2     :     0.021094  d :     0.057676
      dxz     :     0.018727
      dyz     :     0.011499
      dx2y2   :     0.003269
      dxy     :     0.003086

 13 H s       :     0.675267  s :     0.675267
      pz      :     0.028759  p :     0.120247
      px      :     0.052792
      py      :     0.038696



                      *****************************
                      * MAYER POPULATION ANALYSIS *
                      *****************************

  NA   - Mulliken gross atomic population
  ZA   - Total nuclear charge
  QA   - Mulliken gross atomic charge
  VA   - Mayer's total valence
  BVA  - Mayer's bonded valence
  FA   - Mayer's free valence

  ATOM       NA         ZA         QA         VA         BVA        FA
  0 H      0.8211     1.0000     0.1789     0.9371     0.9371    -0.0000
  1 C      6.3848     6.0000    -0.3848     3.7800     3.7800     0.0000
  2 H      0.8233     1.0000     0.1767     0.9363     0.9363    -0.0000
  3 H      0.9021     1.0000     0.0979     0.9703     0.9703     0.0000
  4 O      8.6323     8.0000    -0.6323     1.8266     1.8266    -0.0000
  5 C      6.0349     6.0000    -0.0349     3.7404     3.7404    -0.0000
  6 H      0.7148     1.0000     0.2852     0.9004     0.9004     0.0000
  7 S     16.0276    16.0000    -0.0276     1.8988     1.8988     0.0000
  8 N      7.6917     7.0000    -0.6917     2.7630     2.7630    -0.0000
  9 H      0.7082     1.0000     0.2918     0.9026     0.9026     0.0000
 10 C      5.2157     6.0000     0.7843     3.6992     3.6992    -0.0000
 11 H      0.8401     1.0000     0.1599     0.9318     0.9318     0.0000
 12 O      8.5793     8.0000    -0.5793     1.9056     1.9056    -0.0000
 13 H      0.6239     1.0000     0.3761     0.8685     0.8685     0.0000

  Mayer bond orders larger than 0.100000
B(  0-H ,  5-C ) :   0.9521 B(  1-C ,  2-H ) :   0.9553 B(  1-C ,  5-C ) :   0.9436 
B(  1-C ,  7-S ) :   0.9736 B(  1-C , 11-H ) :   0.9527 B(  3-H ,  7-S ) :   0.9456 
B(  4-O , 10-C ) :   0.9758 B(  4-O , 13-H ) :   0.8374 B(  5-C ,  8-N ) :   0.9854 
B(  5-C , 10-C ) :   0.9165 B(  6-H ,  8-N ) :   0.9058 B(  8-N ,  9-H ) :   0.8925 
B( 10-C , 12-O ) :   1.8374 

-------
TIMINGS
-------

Total SCF time: 0 days 0 hours 0 min 9 sec 

Total time                  ....       9.815 sec
Sum of individual times     ....       9.333 sec  ( 95.1%)

SCF preparation             ....       0.015 sec  (  0.1%)
Fock matrix formation       ....       9.289 sec  ( 94.6%)
  Startup                   ....       0.000 sec  (  0.0% of F)
  Coulomb+Exchange Fock     ....       9.760 sec  (105.1% of F)
Diagonalization             ....       0.000 sec  (  0.0%)
Density matrix formation    ....       0.003 sec  (  0.0%)
Total Energy calculation    ....       0.001 sec  (  0.0%)
Population analysis         ....       0.002 sec  (  0.0%)
Orbital Transformation      ....       0.004 sec  (  0.0%)
Orbital Orthonormalization  ....       0.000 sec  (  0.0%)
DIIS solution               ....       0.012 sec  (  0.1%)
SOSCF solution              ....       0.008 sec  (  0.1%)
Finished LeanSCF after   9.8 sec

Maximum memory used throughout the entire LEANSCF-calculation: 11.8 MB

------------------------------------------------------------------------------
                                ORCA  MP2 
------------------------------------------------------------------------------

Freezing NCore=22 chemical core electrons
MP2 will be done in the AO integral direct mode
The Q1-step will be done using symmetric double matrices
Dimension of the basis                    ...  137
Memory devoted for MP2                    ... 4096 MB   
Memory needed for all in one shot         ...  208 MB
Number of MOs that can be treated together...  413      
MP2 density construction                  ... relaxed
The MP2 gradient is requested => amplitudes will be stored on disk
Total number of MOs              ...   21
Number of MOs treated per batch  ...   21 
Number of batches necessary      ...    1 
OPERATORS   0/  0 PASS   0
-----------------------------------------------
 MP2 CORRELATION ENERGY   :     -1.055823756 Eh
-----------------------------------------------


---------------------
MP2 DENSITY FORMATION
---------------------

Completing the external part of the density      ... done
Storing the unrelaxed density                    ... done

Calculating G(D)                                 ... done
Completing the Lagrangian                        ... done
Solving the Z-vector equations                   ... 
-------------------
SHARK CP-SCF DRIVER
-------------------

Dimension of the orbital basis          ...    137
Dimension of the CPSCF-problem          ...   3360
Number of operators                     ...      1
Max. number of iterations               ...    128
Convergence Tolerance                   ... 1.0e-04
Number of perturbations                 ...      1
Perturbation type                       ... REAL

----------------------------
POPLE LINEAR EQUATION SOLVER
----------------------------

  ITERATION   0:   ||err||_max =   1.2699e-01 (   1.0 sec)
  ITERATION   1:   ||err||_max =   3.1384e-02 (   1.0 sec)
  ITERATION   2:   ||err||_max =   1.3121e-02 (   1.0 sec)
  ITERATION   3:   ||err||_max =   3.3992e-03 (   1.0 sec)
  ITERATION   4:   ||err||_max =   1.0533e-03 (   1.0 sec)
  ITERATION   5:   ||err||_max =   2.8289e-04 (   1.0 sec)
  ITERATION   6:   ||err||_max =   8.7090e-05 (   1.0 sec)
                                                 ... done
Finalizing the relaxed density                   ... done
Transforming P to the AO basis                   ... done
Storing the relaxed density                      ... done

------------------------------------
ENERGY WEIGHTED DENSITY FINALIZATION
------------------------------------

Gathering the parts of the W-matrix              ...                                                      done
Forming the Z-density                            ... done
Transforming Z to the AO basis                   ... done
Calculating G(Z)                                 ... done
Finalizing the W-matrix                          ...                                                      done
Transforming W to the AO basis and storing       ... done

                *********************************************
                * UNRELAXED MP2 DENSITY POPULATION ANALYSIS *
                *********************************************

------------------------------------------------------------------------------
                           ORCA POPULATION ANALYSIS
------------------------------------------------------------------------------
Input electron density              ... 0.pmp2ur
BaseName (.gbw .S,...)              ... 0

                    ********************************
                    * MULLIKEN POPULATION ANALYSIS *
                    ********************************

-----------------------
MULLIKEN ATOMIC CHARGES
-----------------------
   0 H :    0.179331
   1 C :   -0.387305
   2 H :    0.177084
   3 H :    0.097009
   4 O :   -0.618802
   5 C :   -0.040966
   6 H :    0.283972
   7 S :   -0.024854
   8 N :   -0.683491
   9 H :    0.290066
  10 C :    0.751163
  11 H :    0.160319
  12 O :   -0.556476
  13 H :    0.372948
Sum of atomic charges:    0.0000000

--------------------------------
MULLIKEN REDUCED ORBITAL CHARGES
--------------------------------
  0 H s       :     0.805787  s :     0.805787
      pz      :     0.009659  p :     0.014881
      px      :     0.002696
      py      :     0.002526
  1 C s       :     3.305426  s :     3.305426
      pz      :     1.093656  p :     3.017656
      px      :     0.898048
      py      :     1.025952
      dz2     :     0.015444  d :     0.064222
      dxz     :     0.009505
      dyz     :     0.013213
      dx2y2   :     0.012320
      dxy     :     0.013741
  2 H s       :     0.807328  s :     0.807328
      pz      :     0.004782  p :     0.015588
      px      :     0.002776
      py      :     0.008031
  3 H s       :     0.881507  s :     0.881507
      pz      :     0.006828  p :     0.021484
      px      :     0.004832
      py      :     0.009824
  4 O s       :     3.831719  s :     3.831719
      pz      :     1.661681  p :     4.738713
      px      :     1.588502
      py      :     1.488530
      dz2     :     0.009142  d :     0.048370
      dxz     :     0.010464
      dyz     :     0.013660
      dx2y2   :     0.007236
      dxy     :     0.007868
  5 C s       :     3.201860  s :     3.201860
      pz      :     1.020356  p :     2.753034
      px      :     0.915979
      py      :     0.816699
      dz2     :     0.019220  d :     0.086072
      dxz     :     0.010012
      dyz     :     0.017808
      dx2y2   :     0.013996
      dxy     :     0.025035
  6 H s       :     0.687855  s :     0.687855
      pz      :     0.005154  p :     0.028173
      px      :     0.012211
      py      :     0.010808
  7 S s       :     5.832836  s :     5.832836
      pz      :     3.653326  p :    10.083696
      px      :     3.384001
      py      :     3.046369
      dz2     :     0.012373  d :     0.108322
      dxz     :     0.018648
      dyz     :     0.028409
      dx2y2   :     0.024465
      dxy     :     0.024427
  8 N s       :     3.597520  s :     3.597520
      pz      :     1.197649  p :     4.029953
      px      :     1.618705
      py      :     1.213599
      dz2     :     0.015494  d :     0.056017
      dxz     :     0.006360
      dyz     :     0.011369
      dx2y2   :     0.009592
      dxy     :     0.013202
  9 H s       :     0.681909  s :     0.681909
      pz      :     0.015683  p :     0.028025
      px      :     0.007139
      py      :     0.005203
 10 C s       :     2.947101  s :     2.947101
      pz      :     0.688457  p :     2.144119
      px      :     0.765191
      py      :     0.690471
      dz2     :     0.037571  d :     0.157616
      dxz     :     0.035730
      dyz     :     0.046117
      dx2y2   :     0.019736
      dxy     :     0.018462
 11 H s       :     0.824305  s :     0.824305
      pz      :     0.009316  p :     0.015376
      px      :     0.003071
      py      :     0.002989
 12 O s       :     3.867803  s :     3.867803
      pz      :     1.391910  p :     4.634195
      px      :     1.569889
      py      :     1.672396
      dz2     :     0.016223  d :     0.054478
      dxz     :     0.013193
      dyz     :     0.011958
      dx2y2   :     0.006334
      dxy     :     0.006769
 13 H s       :     0.584373  s :     0.584373
      pz      :     0.009590  p :     0.042679
      px      :     0.018964
      py      :     0.014125


                     *******************************
                     * LOEWDIN POPULATION ANALYSIS *
                     *******************************

----------------------
LOEWDIN ATOMIC CHARGES
----------------------
   0 H :    0.090554
   1 C :   -0.212122
   2 H :    0.089667
   3 H :    0.048490
   4 O :   -0.195780
   5 C :   -0.035554
   6 H :    0.135246
   7 S :    0.017637
   8 N :   -0.269006
   9 H :    0.138038
  10 C :    0.201528
  11 H :    0.076246
  12 O :   -0.287103
  13 H :    0.202161

-------------------------------
LOEWDIN REDUCED ORBITAL CHARGES
-------------------------------
  0 H s       :     0.864330  s :     0.864330
      pz      :     0.029182  p :     0.045116
      px      :     0.008089
      py      :     0.007845
  1 C s       :     2.941048  s :     2.941048
      pz      :     1.095691  p :     3.163641
      px      :     1.001248
      py      :     1.066702
      dz2     :     0.025202  d :     0.107433
      dxz     :     0.015931
      dyz     :     0.020406
      dx2y2   :     0.020850
      dxy     :     0.025044
  2 H s       :     0.863313  s :     0.863313
      pz      :     0.014364  p :     0.047021
      px      :     0.007828
      py      :     0.024828
  3 H s       :     0.896158  s :     0.896158
      pz      :     0.017507  p :     0.055352
      px      :     0.011392
      py      :     0.026454
  4 O s       :     3.453242  s :     3.453242
      pz      :     1.648156  p :     4.669654
      px      :     1.549107
      py      :     1.472391
      dz2     :     0.012921  d :     0.072884
      dxz     :     0.013278
      dyz     :     0.021447
      dx2y2   :     0.010019
      dxy     :     0.015218
  5 C s       :     2.872678  s :     2.872678
      pz      :     1.036477  p :     3.002940
      px      :     1.009578
      py      :     0.956885
      dz2     :     0.033738  d :     0.159936
      dxz     :     0.016558
      dyz     :     0.032806
      dx2y2   :     0.026073
      dxy     :     0.050762
  6 H s       :     0.778797  s :     0.778797
      pz      :     0.014291  p :     0.085957
      px      :     0.039985
      py      :     0.031681
  7 S s       :     5.615404  s :     5.615404
      pz      :     3.689508  p :    10.248717
      px      :     3.456825
      py      :     3.102383
      dz2     :     0.013472  d :     0.118243
      dxz     :     0.020873
      dyz     :     0.029872
      dx2y2   :     0.026432
      dxy     :     0.027595
  8 N s       :     3.183163  s :     3.183163
      pz      :     1.193069  p :     4.001449
      px      :     1.571689
      py      :     1.236691
      dz2     :     0.024816  d :     0.084395
      dxz     :     0.007262
      dyz     :     0.018854
      dx2y2   :     0.013573
      dxy     :     0.019889
  9 H s       :     0.775817  s :     0.775817
      pz      :     0.048601  p :     0.086144
      px      :     0.022053
      py      :     0.015490
 10 C s       :     2.846992  s :     2.846992
      pz      :     0.935202  p :     2.620833
      px      :     0.866496
      py      :     0.819136
      dz2     :     0.079597  d :     0.330647
      dxz     :     0.074714
      dyz     :     0.101636
      dx2y2   :     0.039458
      dxy     :     0.035241
 11 H s       :     0.876847  s :     0.876847
      pz      :     0.028631  p :     0.046907
      px      :     0.008913
      py      :     0.009363
 12 O s       :     3.544595  s :     3.544595
      pz      :     1.460287  p :     4.660716
      px      :     1.561822
      py      :     1.638607
      dz2     :     0.026275  d :     0.081792
      dxz     :     0.023825
      dyz     :     0.016279
      dx2y2   :     0.007815
      dxy     :     0.007597
 13 H s       :     0.675172  s :     0.675172
      pz      :     0.029613  p :     0.122667
      px      :     0.053646
      py      :     0.039408


                      *****************************
                      * MAYER POPULATION ANALYSIS *
                      *****************************

  NA   - Mulliken gross atomic population
  ZA   - Total nuclear charge
  QA   - Mulliken gross atomic charge
  VA   - Mayer's total valence
  BVA  - Mayer's bonded valence
  FA   - Mayer's free valence

  ATOM       NA         ZA         QA         VA         BVA        FA
  0 H      0.8207     1.0000     0.1793     0.9451     0.8980     0.0470
  1 C      6.3873     6.0000    -0.3873     3.8729     3.5825     0.2904
  2 H      0.8229     1.0000     0.1771     0.9442     0.8977     0.0465
  3 H      0.9030     1.0000     0.0970     0.9789     0.9252     0.0537
  4 O      8.6188     8.0000    -0.6188     2.0845     1.7294     0.3551
  5 C      6.0410     6.0000    -0.0410     3.8168     3.5373     0.2795
  6 H      0.7160     1.0000     0.2840     0.9072     0.8623     0.0449
  7 S     16.0249    16.0000    -0.0249     2.1485     1.7844     0.3642
  8 N      7.6835     7.0000    -0.6835     2.9583     2.6305     0.3278
  9 H      0.7099     1.0000     0.2901     0.9099     0.8645     0.0454
 10 C      5.2488     6.0000     0.7512     3.7617     3.4717     0.2900
 11 H      0.8397     1.0000     0.1603     0.9403     0.8927     0.0476
 12 O      8.5565     8.0000    -0.5565     2.1698     1.7724     0.3975
 13 H      0.6271     1.0000     0.3729     0.8753     0.8315     0.0438

  Mayer bond orders larger than 0.100000
B(  0-H ,  5-C ) :   0.9152 B(  1-C ,  2-H ) :   0.9180 B(  1-C ,  5-C ) :   0.8899 
B(  1-C ,  7-S ) :   0.9073 B(  1-C , 11-H ) :   0.9150 B(  3-H ,  7-S ) :   0.9016 
B(  4-O , 10-C ) :   0.9223 B(  4-O , 13-H ) :   0.8029 B(  5-C ,  8-N ) :   0.9290 
B(  5-C , 10-C ) :   0.8665 B(  6-H ,  8-N ) :   0.8692 B(  8-N ,  9-H ) :   0.8561 
B( 10-C , 12-O ) :   1.7176 


                *******************************************
                * RELAXED MP2 DENSITY POPULATION ANALYSIS *
                *******************************************

------------------------------------------------------------------------------
                           ORCA POPULATION ANALYSIS
------------------------------------------------------------------------------
Input electron density              ... 0.pmp2re
BaseName (.gbw .S,...)              ... 0

                    ********************************
                    * MULLIKEN POPULATION ANALYSIS *
                    ********************************

-----------------------
MULLIKEN ATOMIC CHARGES
-----------------------
   0 H :    0.162946
   1 C :   -0.354808
   2 H :    0.164727
   3 H :    0.095654
   4 O :   -0.519740
   5 C :   -0.055878
   6 H :    0.269983
   7 S :   -0.039764
   8 N :   -0.620115
   9 H :    0.270729
  10 C :    0.559160
  11 H :    0.146778
  12 O :   -0.427114
  13 H :    0.347442
Sum of atomic charges:    0.0000000

--------------------------------
MULLIKEN REDUCED ORBITAL CHARGES
--------------------------------
  0 H s       :     0.823019  s :     0.823019
      pz      :     0.008463  p :     0.014035
      px      :     0.002945
      py      :     0.002627
  1 C s       :     3.284434  s :     3.284434
      pz      :     1.081725  p :     3.011424
      px      :     0.902709
      py      :     1.026991
      dz2     :     0.014024  d :     0.058949
      dxz     :     0.009175
      dyz     :     0.012196
      dx2y2   :     0.011841
      dxy     :     0.011713
  2 H s       :     0.820443  s :     0.820443
      pz      :     0.004609  p :     0.014831
      px      :     0.003010
      py      :     0.007212
  3 H s       :     0.883258  s :     0.883258
      pz      :     0.006803  p :     0.021088
      px      :     0.005109
      py      :     0.009175
  4 O s       :     3.814293  s :     3.814293
      pz      :     1.642049  p :     4.658541
      px      :     1.554012
      py      :     1.462480
      dz2     :     0.009432  d :     0.046906
      dxz     :     0.010138
      dyz     :     0.012242
      dx2y2   :     0.007021
      dxy     :     0.008073
  5 C s       :     3.181899  s :     3.181899
      pz      :     1.013186  p :     2.795140
      px      :     0.940537
      py      :     0.841417
      dz2     :     0.017396  d :     0.078838
      dxz     :     0.009633
      dyz     :     0.015956
      dx2y2   :     0.013548
      dxy     :     0.022305
  6 H s       :     0.702954  s :     0.702954
      pz      :     0.005408  p :     0.027063
      px      :     0.011497
      py      :     0.010158
  7 S s       :     5.837028  s :     5.837028
      pz      :     3.647626  p :    10.103337
      px      :     3.387500
      py      :     3.068211
      dz2     :     0.012119  d :     0.099399
      dxz     :     0.017700
      dyz     :     0.025702
      dx2y2   :     0.022618
      dxy     :     0.021261
  8 N s       :     3.579751  s :     3.579751
      pz      :     1.181135  p :     3.987200
      px      :     1.594410
      py      :     1.211655
      dz2     :     0.014792  d :     0.053164
      dxz     :     0.006423
      dyz     :     0.009960
      dx2y2   :     0.009097
      dxy     :     0.012892
  9 H s       :     0.702388  s :     0.702388
      pz      :     0.013908  p :     0.026883
      px      :     0.007524
      py      :     0.005450
 10 C s       :     2.969121  s :     2.969121
      pz      :     0.732715  p :     2.323606
      px      :     0.827323
      py      :     0.763569
      dz2     :     0.034967  d :     0.148114
      dxz     :     0.033841
      dyz     :     0.043608
      dx2y2   :     0.019142
      dxy     :     0.016556
 11 H s       :     0.838568  s :     0.838568
      pz      :     0.008189  p :     0.014654
      px      :     0.003303
      py      :     0.003162
 12 O s       :     3.843104  s :     3.843104
      pz      :     1.386437  p :     4.532306
      px      :     1.526335
      py      :     1.619534
      dz2     :     0.014723  d :     0.051705
      dxz     :     0.012456
      dyz     :     0.011682
      dx2y2   :     0.006296
      dxy     :     0.006547
 13 H s       :     0.611717  s :     0.611717
      pz      :     0.009732  p :     0.040841
      px      :     0.017618
      py      :     0.013490


                     *******************************
                     * LOEWDIN POPULATION ANALYSIS *
                     *******************************

----------------------
LOEWDIN ATOMIC CHARGES
----------------------
   0 H :    0.090972
   1 C :   -0.217369
   2 H :    0.090671
   3 H :    0.050753
   4 O :   -0.160533
   5 C :   -0.056078
   6 H :    0.134847
   7 S :    0.013517
   8 N :   -0.255630
   9 H :    0.134537
  10 C :    0.121840
  11 H :    0.075923
  12 O :   -0.215827
  13 H :    0.192376

-------------------------------
LOEWDIN REDUCED ORBITAL CHARGES
-------------------------------
  0 H s       :     0.864182  s :     0.864182
      pz      :     0.028194  p :     0.044846
      px      :     0.008513
      py      :     0.008138
  1 C s       :     2.942913  s :     2.942913
      pz      :     1.097864  p :     3.171573
      px      :     1.002706
      py      :     1.071003
      dz2     :     0.024102  d :     0.102883
      dxz     :     0.015618
      dyz     :     0.019553
      dx2y2   :     0.020660
      dxy     :     0.022950
  2 H s       :     0.863039  s :     0.863039
      pz      :     0.014110  p :     0.046289
      px      :     0.008022
      py      :     0.024158
  3 H s       :     0.893545  s :     0.893545
      pz      :     0.017651  p :     0.055702
      px      :     0.011811
      py      :     0.026241
  4 O s       :     3.458906  s :     3.458906
      pz      :     1.639464  p :     4.627872
      px      :     1.528904
      py      :     1.459503
      dz2     :     0.013512  d :     0.073756
      dxz     :     0.013411
      dyz     :     0.020867
      dx2y2   :     0.010265
      dxy     :     0.015700
  5 C s       :     2.876685  s :     2.876685
      pz      :     1.040664  p :     3.026291
      px      :     1.020938
      py      :     0.964689
      dz2     :     0.031966  d :     0.153102
      dxz     :     0.016173
      dyz     :     0.031011
      dx2y2   :     0.025799
      dxy     :     0.048153
  6 H s       :     0.780456  s :     0.780456
      pz      :     0.014234  p :     0.084697
      px      :     0.039547
      py      :     0.030917
  7 S s       :     5.623242  s :     5.623242
      pz      :     3.683615  p :    10.254472
      px      :     3.452790
      py      :     3.118067
      dz2     :     0.013038  d :     0.108769
      dxz     :     0.019776
      dyz     :     0.027263
      dx2y2   :     0.024609
      dxy     :     0.024082
  8 N s       :     3.184424  s :     3.184424
      pz      :     1.191721  p :     3.988891
      px      :     1.560526
      py      :     1.236644
      dz2     :     0.024438  d :     0.082314
      dxz     :     0.007379
      dyz     :     0.017647
      dx2y2   :     0.013148
      dxy     :     0.019702
  9 H s       :     0.780671  s :     0.780671
      pz      :     0.047045  p :     0.084792
      px      :     0.022056
      py      :     0.015691
 10 C s       :     2.850511  s :     2.850511
      pz      :     0.946981  p :     2.703629
      px      :     0.899613
      py      :     0.857035
      dz2     :     0.077523  d :     0.324020
      dxz     :     0.074114
      dyz     :     0.100190
      dx2y2   :     0.038877
      dxy     :     0.033315
 11 H s       :     0.877881  s :     0.877881
      pz      :     0.027698  p :     0.046195
      px      :     0.009025
      py      :     0.009473
 12 O s       :     3.546941  s :     3.546941
      pz      :     1.457693  p :     4.587448
      px      :     1.529232
      py      :     1.600524
      dz2     :     0.025659  d :     0.081438
      dxz     :     0.023495
      dyz     :     0.016749
      dx2y2   :     0.007886
      dxy     :     0.007650
 13 H s       :     0.687119  s :     0.687119
      pz      :     0.029838  p :     0.120505
      px      :     0.052099
      py      :     0.038568


                      *****************************
                      * MAYER POPULATION ANALYSIS *
                      *****************************

  NA   - Mulliken gross atomic population
  ZA   - Total nuclear charge
  QA   - Mulliken gross atomic charge
  VA   - Mayer's total valence
  BVA  - Mayer's bonded valence
  FA   - Mayer's free valence

  ATOM       NA         ZA         QA         VA         BVA        FA
  0 H      0.8371     1.0000     0.1629     0.9519     0.9050     0.0469
  1 C      6.3548     6.0000    -0.3548     3.9246     3.6383     0.2862
  2 H      0.8353     1.0000     0.1647     0.9501     0.9036     0.0465
  3 H      0.9043     1.0000     0.0957     0.9860     0.9330     0.0530
  4 O      8.5197     8.0000    -0.5197     2.1994     1.8525     0.3469
  5 C      6.0559     6.0000    -0.0559     3.8809     3.6059     0.2750
  6 H      0.7300     1.0000     0.2700     0.9142     0.8692     0.0450
  7 S     16.0398    16.0000    -0.0398     2.1847     1.8252     0.3595
  8 N      7.6201     7.0000    -0.6201     3.0405     2.7176     0.3229
  9 H      0.7293     1.0000     0.2707     0.9232     0.8780     0.0451
 10 C      5.4408     6.0000     0.5592     3.9775     3.7051     0.2724
 11 H      0.8532     1.0000     0.1468     0.9443     0.8966     0.0477
 12 O      8.4271     8.0000    -0.4271     2.3302     1.9478     0.3825
 13 H      0.6526     1.0000     0.3474     0.8963     0.8537     0.0427

  Mayer bond orders larger than 0.100000
B(  0-H ,  5-C ) :   0.9053 B(  1-C ,  2-H ) :   0.9149 B(  1-C ,  5-C ) :   0.9010 
B(  1-C ,  7-S ) :   0.9311 B(  1-C , 11-H ) :   0.9114 B(  3-H ,  7-S ) :   0.8932 
B(  4-O , 10-C ) :   1.0013 B(  4-O , 13-H ) :   0.8094 B(  5-C ,  8-N ) :   0.9665 
B(  5-C , 10-C ) :   0.8613 B(  6-H ,  8-N ) :   0.8707 B(  8-N ,  9-H ) :   0.8595 
B( 10-C , 12-O ) :   1.8366 


----------------------------------
MP2 DERIVATIVE INTEGRAL GENERATION
----------------------------------

Input SCF Electron Density              ... 0.scfp
Input Correlated Electron Density       ... 0.pmp2re
Input Energy Weighted Density           ... 0.wmp2.tmp
Input Wavefunction Amplitudes           ... 0.mp2tsaa.tmp

Nuclear repulsion gradient              ... done (  0.0 sec)
HCore & Overlap gradient  (SHARK)       ... done (  0.1 sec)
Analytic two-electron gradient terms    ... 
  Batch handling in the gradient evaluation:
  General contraction                   ... not used
  Memory available                      ... 4087.7 MB
  Memory per occupied orbital in Q2     ...    3.0 MB
  Memory per occupied orbital in Q3     ...    0.0 MB
  Total memory requirement per |i>      ...    3.0 MB
  Number of orbitals treated per batch  ...     21
  Number of batches to be done          ...      1
done (  6.2 sec)

---------------------------------------
MP2 TOTAL ENERGY:     -720.446881190 Eh
---------------------------------------

The final MP2 gradient
  0:   0.00099885   0.00085189   0.00249030
  1:   0.00741836  -0.00782084  -0.00521336
  2:  -0.00127394   0.00060410   0.00172112
  3:  -0.00065784  -0.00048517   0.00037631
  4:   0.00063166   0.01528174  -0.02331067
  5:  -0.00183940   0.00666858   0.00175271
  6:  -0.00063818   0.00126351   0.00111648
  7:   0.00241119   0.00299645  -0.00238703
  8:   0.00213964  -0.00319315  -0.00021901
  9:  -0.00301178   0.00020117  -0.00145657
 10:   0.01080611  -0.01041262  -0.01250977
 11:  -0.00423493   0.00231170   0.00020253
 12:  -0.01420959  -0.00380083   0.03200950
 13:   0.00145985  -0.00446654   0.00542746

-----------------------------------
NORM OF THE MP2 GRADIENT:  0.052274
-----------------------------------

Maximum memory used throughout the entire MP2-calculation: 233.4 MB

-------------------------   --------------------
FINAL SINGLE POINT ENERGY      -720.446881189770
-------------------------   --------------------

------------------------------------------------------------------------------
                         ORCA GEOMETRY RELAXATION STEP
------------------------------------------------------------------------------

Reading the OPT-File                    .... done
Getting information on internals        .... done
Copying old internal coords+grads       .... done
Making the new internal coordinates     .... (2022 redundants) done
Validating the new internal coordinates .... (2022 redundants) done
Calculating the B-matrix                .... done
Calculating the G,G- and P matrices     .... done
Transforming gradient to internals      .... done
Projecting the internal gradient        .... done
Number of atoms                         ....  14
Number of internal coordinates          ....  56
Current Energy                          ....  -720.446881190 Eh
Current gradient norm                   ....     0.052274415 Eh/bohr
Maximum allowed component of the step   ....  0.300
Current trust radius                    ....  0.300
Evaluating the initial hessian          ....  (Almloef) done
Projecting the Hessian                  .... done
Forming the augmented Hessian           .... done
Diagonalizing the augmented Hessian     .... done
Last element of RFO vector              ....  0.985155933
Lowest eigenvalues of augmented Hessian:
 -0.003360054  0.010005381  0.010639518  0.010811572  0.018051984
Length of the computed step             ....  0.174248394
The final length of the internal step   ....  0.174248394
Converting the step to Cartesian space:
 Initial RMS(Int)=    0.0232849211
Transforming coordinates:
 Iter   0:  RMS(Cart)=    0.0373732496 RMS(Int)=    0.8360095470
done
Storing new coordinates                 .... done

                                .--------------------.
          ----------------------|Geometry convergence|-------------------------
          Item                value                   Tolerance       Converged
          ---------------------------------------------------------------------
[...]
      py      :     0.009156
  4 O s       :     3.828241  s :     3.828241
      pz      :     1.625187  p :     4.645486
      px      :     1.562979
      py      :     1.457320
      dz2     :     0.009393  d :     0.047667
      dxz     :     0.010560
      dyz     :     0.012763
      dx2y2   :     0.007113
      dxy     :     0.007838
  5 C s       :     3.183185  s :     3.183185
      pz      :     1.012211  p :     2.796525
      px      :     0.938100
      py      :     0.846214
      dz2     :     0.017033  d :     0.078515
      dxz     :     0.009836
      dyz     :     0.015946
      dx2y2   :     0.013452
      dxy     :     0.022249
  6 H s       :     0.705517  s :     0.705517
      pz      :     0.005603  p :     0.027041
      px      :     0.011247
      py      :     0.010191
  7 S s       :     5.836108  s :     5.836108
      pz      :     3.616717  p :    10.093298
      px      :     3.390046
      py      :     3.086535
      dz2     :     0.011890  d :     0.100102
      dxz     :     0.018294
      dyz     :     0.026886
      dx2y2   :     0.023564
      dxy     :     0.019467
  8 N s       :     3.589562  s :     3.589562
      pz      :     1.164971  p :     3.972619
      px      :     1.612093
      py      :     1.195554
      dz2     :     0.013477  d :     0.053855
      dxz     :     0.008053
      dyz     :     0.010271
      dx2y2   :     0.008895
      dxy     :     0.013160
  9 H s       :     0.702816  s :     0.702816
      pz      :     0.013698  p :     0.026969
      px      :     0.007718
      py      :     0.005552
 10 C s       :     2.980496  s :     2.980496
      pz      :     0.720905  p :     2.315869
      px      :     0.830005
      py      :     0.764959
      dz2     :     0.033720  d :     0.141478
      dxz     :     0.030960
      dyz     :     0.041396
      dx2y2   :     0.018780
      dxy     :     0.016622
 11 H s       :     0.841004  s :     0.841004
      pz      :     0.008164  p :     0.014604
      px      :     0.003177
      py      :     0.003263
 12 O s       :     3.858291  s :     3.858291
      pz      :     1.382424  p :     4.525425
      px      :     1.517273
      py      :     1.625728
      dz2     :     0.014389  d :     0.050887
      dxz     :     0.012271
      dyz     :     0.011217
      dx2y2   :     0.006413
      dxy     :     0.006597
 13 H s       :     0.612918  s :     0.612918
      pz      :     0.010608  p :     0.040758
      px      :     0.017347
      py      :     0.012804


                     *******************************
                     * LOEWDIN POPULATION ANALYSIS *
                     *******************************

----------------------
LOEWDIN ATOMIC CHARGES
----------------------
   0 H :    0.090897
   1 C :   -0.220825
   2 H :    0.090432
   3 H :    0.050987
   4 O :   -0.173173
   5 C :   -0.057255
   6 H :    0.134415
   7 S :    0.024064
   8 N :   -0.258817
   9 H :    0.133876
  10 C :    0.143312
  11 H :    0.075124
  12 O :   -0.223928
  13 H :    0.190891

-------------------------------
LOEWDIN REDUCED ORBITAL CHARGES
-------------------------------
  0 H s       :     0.863798  s :     0.863798
      pz      :     0.028128  p :     0.045305
      px      :     0.008677
      py      :     0.008500
  1 C s       :     2.941676  s :     2.941676
      pz      :     1.098844  p :     3.175249
      px      :     1.005035
      py      :     1.071371
      dz2     :     0.024025  d :     0.103900
      dxz     :     0.016001
      dyz     :     0.019846
      dx2y2   :     0.021166
      dxy     :     0.022861
  2 H s       :     0.863189  s :     0.863189
      pz      :     0.013827  p :     0.046379
      px      :     0.008218
      py      :     0.024334
  3 H s       :     0.894517  s :     0.894517
      pz      :     0.017740  p :     0.054496
      px      :     0.010703
      py      :     0.026053
  4 O s       :     3.479882  s :     3.479882
      pz      :     1.626006  p :     4.621047
      px      :     1.538459
      py      :     1.456582
      dz2     :     0.012600  d :     0.072244
      dxz     :     0.013658
      dyz     :     0.021309
      dx2y2   :     0.010323
      dxy     :     0.014353
  5 C s       :     2.876645  s :     2.876645
      pz      :     1.040260  p :     3.028220
      px      :     1.020210
      py      :     0.967750
      dz2     :     0.031182  d :     0.152390
      dxz     :     0.016522
      dyz     :     0.030977
      dx2y2   :     0.025531
      dxy     :     0.048179
  6 H s       :     0.781207  s :     0.781207
      pz      :     0.014839  p :     0.084378
      px      :     0.038582
      py      :     0.030956
  7 S s       :     5.621441  s :     5.621441
      pz      :     3.658324  p :    10.244862
      px      :     3.452117
      py      :     3.134421
      dz2     :     0.012742  d :     0.109634
      dxz     :     0.020558
      dyz     :     0.028532
      dx2y2   :     0.025679
      dxy     :     0.022123
  8 N s       :     3.194530  s :     3.194530
      pz      :     1.177643  p :     3.981845
      px      :     1.580616
      py      :     1.223586
      dz2     :     0.022575  d :     0.082442
      dxz     :     0.009349
      dyz     :     0.018314
      dx2y2   :     0.012693
      dxy     :     0.019510
  9 H s       :     0.781207  s :     0.781207
      pz      :     0.046166  p :     0.084917
      px      :     0.022957
      py      :     0.015794
 10 C s       :     2.859916  s :     2.859916
      pz      :     0.932357  p :     2.690676
      px      :     0.901746
      py      :     0.856573
      dz2     :     0.073347  d :     0.306096
      dxz     :     0.067429
      dyz     :     0.094231
      dx2y2   :     0.038183
      dxy     :     0.032907
 11 H s       :     0.878852  s :     0.878852
      pz      :     0.027517  p :     0.046024
      px      :     0.008745
      py      :     0.009762
 12 O s       :     3.561572  s :     3.561572
      pz      :     1.450978  p :     4.583419
      px      :     1.523385
      py      :     1.609056
      dz2     :     0.024343  d :     0.078938
      dxz     :     0.023157
      dyz     :     0.015685
      dx2y2   :     0.008035
      dxy     :     0.007718
 13 H s       :     0.688713  s :     0.688713
      pz      :     0.032085  p :     0.120395
      px      :     0.051630
      py      :     0.036681


                      *****************************
                      * MAYER POPULATION ANALYSIS *
                      *****************************

  NA   - Mulliken gross atomic population
  ZA   - Total nuclear charge
  QA   - Mulliken gross atomic charge
  VA   - Mayer's total valence
  BVA  - Mayer's bonded valence
  FA   - Mayer's free valence

  ATOM       NA         ZA         QA         VA         BVA        FA
  0 H      0.8370     1.0000     0.1630     0.9514     0.9044     0.0471
  1 C      6.3515     6.0000    -0.3515     3.9237     3.6377     0.2860
  2 H      0.8360     1.0000     0.1640     0.9501     0.9032     0.0469
  3 H      0.9063     1.0000     0.0937     0.9852     0.9320     0.0532
  4 O      8.5214     8.0000    -0.5214     2.2021     1.8504     0.3517
  5 C      6.0582     6.0000    -0.0582     3.8822     3.6065     0.2757
  6 H      0.7326     1.0000     0.2674     0.9138     0.8684     0.0454
  7 S     16.0295    16.0000    -0.0295     2.1946     1.8367     0.3579
  8 N      7.6160     7.0000    -0.6160     3.0364     2.7132     0.3232
  9 H      0.7298     1.0000     0.2702     0.9250     0.8797     0.0453
 10 C      5.4378     6.0000     0.5622     3.9547     3.6754     0.2793
 11 H      0.8556     1.0000     0.1444     0.9449     0.8969     0.0480
 12 O      8.4346     8.0000    -0.4346     2.3256     1.9358     0.3899
 13 H      0.6537     1.0000     0.3463     0.8984     0.8550     0.0434

  Mayer bond orders larger than 0.100000
B(  0-H ,  5-C ) :   0.9053 B(  1-C ,  2-H ) :   0.9134 B(  1-C ,  5-C ) :   0.8980 
B(  1-C ,  7-S ) :   0.9367 B(  1-C , 11-H ) :   0.9104 B(  3-H ,  7-S ) :   0.8966 
B(  4-O , 10-C ) :   0.9911 B(  4-O , 13-H ) :   0.8108 B(  5-C ,  8-N ) :   0.9663 
B(  5-C , 10-C ) :   0.8666 B(  6-H ,  8-N ) :   0.8711 B(  8-N ,  9-H ) :   0.8590 
B( 10-C , 12-O ) :   1.8118 


----------------------------------
MP2 DERIVATIVE INTEGRAL GENERATION
----------------------------------

Input SCF Electron Density              ... 0.scfp
Input Correlated Electron Density       ... 0.pmp2re
Input Energy Weighted Density           ... 0.wmp2.tmp
Input Wavefunction Amplitudes           ... 0.mp2tsaa.tmp

Nuclear repulsion gradient              ... done (  0.0 sec)
HCore & Overlap gradient  (SHARK)       ... done (  0.1 sec)
Analytic two-electron gradient terms    ... 
  Batch handling in the gradient evaluation:
  General contraction                   ... not used
  Memory available                      ... 4087.3 MB
  Memory per occupied orbital in Q2     ...    3.0 MB
  Memory per occupied orbital in Q3     ...    0.0 MB
  Total memory requirement per |i>      ...    3.0 MB
  Number of orbitals treated per batch  ...     21
  Number of batches to be done          ...      1
done (  6.3 sec)

---------------------------------------
MP2 TOTAL ENERGY:     -720.449418168 Eh
---------------------------------------

The final MP2 gradient
  0:  -0.00000508   0.00001992  -0.00000506
  1:   0.00003383  -0.00001609   0.00000709
  2:  -0.00002949   0.00000609   0.00000906
  3:  -0.00003414   0.00000064   0.00001666
  4:  -0.00000231  -0.00000763  -0.00002066
  5:  -0.00000487  -0.00002578  -0.00001443
  6:   0.00000273  -0.00000454  -0.00000478
  7:   0.00001832   0.00000174  -0.00001155
  8:   0.00001480   0.00000698  -0.00000006
  9:  -0.00000802  -0.00000143   0.00000459
 10:  -0.00002576  -0.00000959   0.00006882
 11:   0.00000124   0.00001431  -0.00000213
 12:   0.00003698   0.00001400  -0.00005816
 13:   0.00000177   0.00000137   0.00001061

-----------------------------------
NORM OF THE MP2 GRADIENT:  0.000132
-----------------------------------

Maximum memory used throughout the entire MP2-calculation: 233.8 MB

-------------------------   --------------------
FINAL SINGLE POINT ENERGY      -720.449418168374
-------------------------   --------------------

                                *** OPTIMIZATION RUN DONE ***


------------------------------------------------------------------------------
                              ORCA PROPERTY CALCULATIONS
------------------------------------------------------------------------------

GBWName                                 ... 0.gbw
Number of atoms                         ...     14
Number of basis functions               ...    137
Max core memory                         ...   4096 MB

Electric properties:
Dipole moment                           ... YES
Quadrupole moment                       ...  NO
Static polarizability (Dipole/Dipole)   ...  NO
Static polarizability (Dipole/Quad.)    ...  NO
Static polarizability (Quad./Quad.)     ...  NO
Static polarizability (Velocity)        ...  NO
Static hyperpolarizability              ...  NO

Atomic electric properties:
Dipole moment                           ...  NO
Quadrupole moment                       ...  NO
Static polarizability                   ...  NO

Choice of electric origin               ... Center of mass
Position of electric origin             ...    -3.723204     2.776588     0.848316

General magnetic properties:
Magnetizability                         ...  NO

EPR properties:
g-Tensor (aka g-matrix)                 ...  NO
Zero-Field splitting spin-orbit         ...  NO
Zero-field splitting spin-spin          ...  NO
Hyperfine couplings                     ...  NO (   0 nuclei)
Quadrupole couplings                    ...  NO (   0 nuclei)
Contact density                         ...  NO (   0 nuclei)

NMR properties:
Chemical shifts                         ...  NO (   0 nuclei)
Spin-rotation constants                 ...  NO (   0 nuclei)
Spin-spin couplings                     ...  NO (   0 nuclei,    0 pairs)

Choice of magnetic origin               ... GIAO
Position of magnetic origin             ...     0.000000     0.000000     0.000000

Properties with geometric perturbations:
SCF Hessian                             ...  NO
IR spectrum                             ...  NO
VCD spectrum                            ...  NO
X-ray spectroscopy properties:
SCF XES/XAS/RIXS spectra                ...  NO

SCF SOC stabilization energy            ...  NO
Diagonal Born-Oppenheimer correction    ...  NO

-------------
DIPOLE MOMENT
-------------

Method             : SCF
Type of density    : Electron Density
Multiplicity       :   1
Irrep              :   0
Energy             :  -719.3893927424090862 Eh
Basis              : AO
                                X                 Y                 Z
Electronic contribution:      0.470801087      -1.702553938       0.933572164
Nuclear contribution   :      0.335530839       1.504704385      -0.891067059
                        -----------------------------------------
Total Dipole Moment    :      0.806331926      -0.197849553       0.042505105
                        -----------------------------------------
Magnitude (a.u.)       :      0.831337659
Magnitude (Debye)      :      2.113092400



--------------------
Rotational spectrum 
--------------------
 
Rotational constants in cm-1:             0.142442             0.039591             0.033440 
Rotational constants in MHz :          4270.311141          1186.901993          1002.497764 

Dipole components along the rotational axes: 
x,y,z [a.u.] :    -0.786029     0.134102    -0.235154 
x,y,z [Debye]:    -1.997927     0.340859    -0.597715 

 

-------------
DIPOLE MOMENT
-------------

Method             : MP2
Type of density    : Electron Density
Multiplicity       :   1
Level              : Unrelaxed density
Irrep              :   0
Energy             :     0.0000000000000000 Eh
Basis              : AO
                                X                 Y                 Z
Electronic contribution:      0.482952263      -1.700418616       0.906971783
Nuclear contribution   :      0.335530839       1.504704385      -0.891067059
                        -----------------------------------------
Total Dipole Moment    :      0.818483102      -0.195714231       0.015904724
                        -----------------------------------------
Magnitude (a.u.)       :      0.841707555
Magnitude (Debye)      :      2.139450580



--------------------
Rotational spectrum 
--------------------
 
Rotational constants in cm-1:             0.142442             0.039591             0.033440 
Rotational constants in MHz :          4270.311141          1186.901993          1002.497764 

Dipole components along the rotational axes: 
x,y,z [a.u.] :    -0.804083     0.116998    -0.219620 
x,y,z [Debye]:    -2.043817     0.297386    -0.558230 

 

-------------
DIPOLE MOMENT
-------------

Method             : MP2
Type of density    : Electron Density
Multiplicity       :   1
Level              : Relaxed density
Irrep              :   0
Energy             :     0.0000000000000000 Eh
Basis              : AO
                                X                 Y                 Z
Electronic contribution:      0.563022953      -1.705435015       0.808372574
Nuclear contribution   :      0.335530839       1.504704385      -0.891067059
                        -----------------------------------------
Total Dipole Moment    :      0.898553791      -0.200730630      -0.082694484
                        -----------------------------------------
Magnitude (a.u.)       :      0.924407962
Magnitude (Debye)      :      2.349658308



--------------------
Rotational spectrum 
--------------------
 
Rotational constants in cm-1:             0.142442             0.039591             0.033440 
Rotational constants in MHz :          4270.311141          1186.901993          1002.497764 

Dipole components along the rotational axes: 
x,y,z [a.u.] :    -0.906767     0.062045    -0.168684 
x,y,z [Debye]:    -2.304818     0.157705    -0.428761 

 

Dipole moment calculation done in   0.0 sec 

Maximum memory used throughout the entire PROP-calculation: 6.8 MB

--------------------------------
SUGGESTED CITATIONS FOR THIS RUN
--------------------------------

Below you find a list of papers that are relevant to this ORCA run
We neither can nor want to force you to cite these papers, but we appreciate if you do
You receive ORCA, which is the product of decades of hard work by many enthusiastic individuals, for free
The only thing we kindly ask in return is that you cite our papers,
We deeply appreciate it, if you show your appreciation for ORCA by not just citing the generic ORCA reference.

Please note that relegating all ORCA citations to the supporting information does *not* help us.
SI sections are not indexed - citations you put there will not count into any citation statistics
But we need these citations in order to attract the funding resources that allow us to do what we are doing

Therefore, if you are a happy ORCA user, please consider citing a few of the papers listed below in the main body of your paper

In addition to the list printed below, the program has created the file 0.bibtex that contains the list in bibtex format
You can import this file easily into all common literature databanks and citation aid programs


List of essential papers. We consider these as the minimum necessary citations

  1. Neese, F.
     Software update: the ORCA program system, version 6.0
     WIRES Comput. Molec. Sci. 2025 15(1), e70019
     doi.org/10.1002/wcms.7019

List of papers to cite with high priority. The work reported in these papers was absolutely
necessary for this run to complete.
Our perspective: the developers of density functionals and basis sets usually get cited in chemistry papers
Good! But without the algorithms to do something with them, the functionals or basis sets would not do anything.
Hence, in our opinion, the algorithm design and method developments papers are equally worthy of getting cited

  1. Neese, F.
     The SHARK Integral Generation and Digestion System
     J. Comp. Chem. 2022 44(3), 381
     doi.org/10.1002/jcc.26942

List of suggested additional citations. These are papers that are important in the 'surrounding' of 
of this run, or papers that preceded the highly important papers. If you like your results we are grateful for a citation.

  1. Neese, F.
     The ORCA program system
     WIRES Comput. Molec. Sci. 2012 2(1), 73-78
     doi.org/10.1002/wcms.81
  2. Neese, F.
     Software update: the ORCA program system, version 4.0
     WIRES Comput. Molec. Sci. 2018 8(1), 1-6
     doi.org/10.1002/wcms.1327
  3. Neese, F.; Wennmohs, F.; Becker, U.; Riplinger, C.
     The ORCA quantum chemistry program package
     J. Chem. Phys. 2020 152(22), 224108
     doi.org/10.1063/5.0004608
  4. Neese, F.
     Software update: The ORCA program system—Version 5.0
     WIRES Comput. Molec. Sci. 2022 12(1), e1606
     doi.org/10.1002/wcms.1606

List of optional additional citations

  1. Neese, F.
     Approximate second-order SCF convergence for spin unrestricted wavefunctions
     Chem. Phys. Lett. 2000 325(1-3), 93-98
     doi.org/10.1016/s0009-2614(00)00662-x

Timings for individual modules:

Sum of individual times          ...      273.248 sec (=   4.554 min)
Startup calculation              ...        2.959 sec (=   0.049 min)   1.1 %
SCF iterations                   ...       64.062 sec (=   1.068 min)  23.4 %
Property calculations            ...        0.042 sec (=   0.001 min)   0.0 %
MP2 module                       ...      206.172 sec (=   3.436 min)  75.5 %
Geometry relaxation              ...        0.013 sec (=   0.000 min)   0.0 %
                             ****ORCA TERMINATED NORMALLY****
TOTAL RUN TIME: 0 days 0 hours 4 minutes 33 seconds 455 msec
