
                                 *****************
                                 * O   R   C   A *
                                 *****************

                                            #,                                       
                                            ###                                      
                                            ####                                     
                                            #####                                    
                                            ######                                   
                                           ########,                                 
                                     ,,################,,,,,                         
                               ,,#################################,,                 
                          ,,##########################################,,             
                       ,#########################################, ''#####,          
                    ,#############################################,,   '####,        
                  ,##################################################,,,,####,       
                ,###########''''           ''''###############################       
              ,#####''   ,,,,##########,,,,          '''####'''          '####       
            ,##' ,,,,###########################,,,                        '##       
           ' ,,###''''                  '''############,,,                           
         ,,##''                                '''############,,,,        ,,,,,,###''
      ,#''                                            '''#######################'''  
     '                                                          ''''####''''         
             ,#######,   #######,   ,#######,      ##                                
            ,#'     '#,  ##    ##  ,#'     '#,    #''#        ,####,    ,#,          
            ##       ##  ##   ,#'  ##            #'  '#       #'       ,# #          
            ##       ##  #######   ##           ,######,      #####,      #          
            '#,     ,#'  ##    ##  '#,     ,#' ,#      #,     #,   #      #          
             '#######'   ##     ##  '#######'  #'      '#     '####' #    #          



                #########################################################
                #                        -***-                          #
                #          Department of theory and spectroscopy        #
                #                                                       #
                #                      Frank Neese                      #
                #                                                       #
                #     Directorship, Architecture, Infrastructure        #
                #                    SHARK, DRIVERS                     #
                #        Core code/Algorithms in most modules           #
                #                                                       #
                #        Max Planck Institute fuer Kohlenforschung      #
                #                Kaiser Wilhelm Platz 1                 #
                #                 D-45470 Muelheim/Ruhr                 #
                #                      Germany                          #
                #                                                       #
                #                  All rights reserved                  #
                #                        -***-                          #
                #########################################################


                         Program Version 6.1.0  -  RELEASE   -
                                (GIT: $679e74b$)
                          ($2025-06-10 18:02:51 +0200$)


 With contributions from (in alphabetic order):
[Max-Planck-Institut fuer Kohlenforschung]                               
  Daniel Aravena         : Magnetic Suceptibility                        
  Michael Atanasov       : Ab Initio Ligand Field Theory (pilot matlab implementation)
  Alexander A. Auer      : GIAO ZORA, VPT2 properties, NMR spectrum      
  Ute Becker             : All parallelization in ORCA, NUMFREQ, NUMCALC 
  Giovanni Bistoni       : ED, misc. LED, open-shell LED, HFLD           
  Dmytro Bykov           : pre 5.0 version of the SCF Hessian            
  Marcos Casanova-Páez   : Triplet and SCS-CIS(D). UHF-(DLPNO)-IP/EA/STEOM-CCSD. UHF-CVS-IP/STEOM-CCSD   
  Vijay G. Chilkuri      : MRCI spin determinant printing, contributions to CSF-ICE 
  Pauline Colinet        : FMM embedding                                 
  Dipayan Datta          : RHF DLPNO-CCSD density                        
  Achintya Kumar Dutta   : EOM-CC, STEOM-CC                              
  Nicolas Foglia         : Exact transition moments, OPA infrastructure, MCD improvements    
  Dmitry Ganyushin       : Spin-Orbit,Spin-Spin,Magnetic field MRCI      
  Miquel Garcia-Rates    : C-PCM and meta-GGA Hessian, CCSD/C-PCM, Gaussian charge scheme 
  Tiago L. C. Gouveia    : GS-ROHF, GS-ROCIS                             
  Yang Guo               : DLPNO-NEVPT2, F12-NEVPT2, CIM, IAO-localization        
  Andreas Hansen         : Spin unrestricted coupled pair/coupled cluster methods 
  Ingolf Harden          : AUTO-CI MPn and infrastructure                
  Benjamin Helmich-Paris : MC-RPA, TRAH-(SCF,CASSCF), AVAS, COSX integrals, SCF dyn. polar., MC-PDFT, srDFT 
  Lee Huntington         : MR-EOM, pCC                                   
  Robert Izsak           : Overlap fitted RIJCOSX, COSX-SCS-MP3, EOM     
  Riya Kayal             : Wick's Theorem for AUTO-CI, AUTO-CI UHF-CCSDT 
  Emily Kempfer          : AUTO-CI RHF CISDT and CCSDT, approximate NEVPT4
  Christian Kollmar      : KDIIS, OOCD, Brueckner-CCSD(T), CCSD density, CASPT2, CASPT2-K, improved NEVPT2 
  Axel Koslowski         : Symmetry handling                             
  Simone Kossmann        : meta-GGA functionals, TD-DFT gradient, OOMP2, (MP2 Hessian; deprecated post 5.0) 
  Lucas Lang             : DCDCAS, Hyperfine gauge corrections, ICE-SOC+SSC
  Marvin Lechner         : AUTO-CI (C++ implementation), FIC-MRCC        
  Spencer Leger          : CASSCF response                               
  Dagmar Lenk            : GEPOL surface, SMD, ORCA-2-JSON               
  Dimitrios Liakos       : Extrapolation schemes; Compound Job, Property file
  Dimitrios Manganas     : Further ROCIS development; embedding schemes. LFT, Crystal Embedding 
  Dimitrios Pantazis     : SARC Basis sets                               
  Anastasios Papadopoulos: AUTO-CI, single reference methods and gradients 
  Taras Petrenko         : pre 6.0 DFT Hessian and TD-DFT gradient,  ECA, NRVS 
  Petra Pikulova         : Analytic Raman intensities                    
  Peter Pinski           : DLPNO-MP2, DLPNO-MP2 Gradient                 
  Shashank Vittal Rao    : ES-AILFT, MagRelax                            
  Christoph Reimann      : Effective Core Potentials                     
  Marius Retegan         : Local ZFS, SOC                                
  Christoph Riplinger    : Optimizer, TS searches, QM/MM, DLPNO-CCSD(T), (RO)-DLPNO pert. Triples 
  Michael Roemelt        : Original ROCIS implementation, recursive CI coupling coefficients
  Masaaki Saitow         : Open-shell DLPNO-CCSD energy and density      
  Barbara Sandhoefer     : DKH picture change effects                    
  Yorick L. A. Schmerwitz: GMF and freeze-and-release deltaSCF, NEB S-IDPP initial path                    
  Kantharuban Sivalingam : CASSCF convergence/infrastructure, NEVPT2, NEVPT3, NEVPT4(SD), FIC-MRCI and CEPA variants
  Bernardo de Souza      : ESD, SOC TD-DFT                               
  Georgi L. Stoychev     : AutoAux, RI-MP2 NMR, DLPNO-MP2 response, X2C  
  Van Anh Tran           : RI-MP2 g-tensors                              
  Willem Van den Heuvel  : Paramagnetic NMR                              
  Zikuan Wang            : NOTCH, Electric field optimization            
  Frank Wennmohs         : Technical directorship and infrastructure     
  Hang Xu                : AUTO-CI-Response properties                   
                                                                         
[FACCTs GmbH]                                                            
  Markus Bursch, Nicolas Foglia, Miquel Garcia-Rates, Ingolf Harden, Hagen Neugebauer, Anastasios Papadopoulos, 
  Christoph Riplinger, Bernardo de Souza, Georgi L. Stoychev                                                    
                                                                 
  APM, various basis sets, CI-OPT, improved COSX, DLPNO-Multilevel,           
  DOCKER, DRACO, updates on ESD, Fragmentator, GOAT, IRC, LR-CPCM, L-BFGS, MBIS, meta-GGA TD-DFT gradient, ML-optimized integration grids, 
  MM, NACMEs, nearIR, NEB, NEB-TS, NL-DFT gradient (VV10), 2- and 3-layer-ONIOM, interface openCOSMO-RS, QMMM,   
  Crystal-QMMM, RESP, rigid body optimization, SF, symmetry and pop. for TD-DFT, various functionals, SOLVATOR                                   
                                                                         
[Other institutions]                                                     
  V. Asgeirsson          : NEB                                           
  Christoph Bannwarth    : sTDA-DFT, sTD-DFT, PBEh-3c, B97-3c, D3        
  Giovanni Bistoni       : ETS/NOCV, ADLD/ADEX, COVALED                  
  Martin Brehm           : Molecular dynamics                            
  Ronald Cardenas        : ETS/NOCV                                      
  Martina Colucci        : COVALED                                       
  Sebastian Ehlert       : rSCAN, r2SCAN, r2SCAN-3c, D4, dhf basis sets  
  Marvin Friede          : D4 for Fr, Ra, Ac-Lr                          
  Lars Goerigk           : TD-DFT with DH, B97 family of functionals     
  Stefan Grimme          : VdW corrections, initial TS optimization, DFT functionals, gCP, sTDA/sTD-DF 
  Waldemar Hujo          : DFT-NL                                        
  H. Jonsson             : NEB                                           
  Holger Kruse           : gCP                                           
  Marcel Mueller         : wB97X-3c, vDZP basis set                      
  Hagen Neugebauer       : wr2SCAN, Native XTB                           
  Gianluca Regni         : ADLD/ADEX                                     
  Tobias Risthaus        : pre 6.0 range-separated hybrid DFT and stability analysis
  Lukas Wittmann         : regularized MP2, r2SCAN double-hybrids, wr2SCAN        
                                                                         
We gratefully acknowledge several colleagues who have allowed us to      
interface, adapt or use parts of their codes:                            
  Ed Valeev, F. Pavosevic, A. Kumar             : LibInt (2-el integral package), F12 methods 
  Garnet Chan, S. Sharma, J. Yang, R. Olivares  : DMRG                   
  Ulf Ekstrom                                   : XCFun DFT Library      
  Mihaly Kallay                                 : mrcc  (arbitrary order and MRCC methods)
  Frank Weinhold                                : gennbo (NPA and NBO analysis)           
  Simon Mueller                                 : openCOSMO-RS                            
  Christopher J. Cramer and Donald G. Truhlar   : smd solvation model                     
  S Lehtola, MJT Oliveira, MAL Marques          : LibXC Library                           
  Liviu Ungur et al                             : ANISO software                          


 Your calculation uses the libint2 library for the computation of 2-el integrals
 For citations please refer to: http://libint.valeyev.net

 Your ORCA version has been built with support for libXC version: 7.0.0
 For citations please refer to: https://libxc.gitlab.io

 This ORCA versions uses:
   CBLAS   interface :  Fast vector & matrix operations
   LAPACKE interface :  Fast linear algebra routines
   SCALAPACK package :  Parallel linear algebra routines
   Shared memory     :  Shared parallel matrices
   BLAS/LAPACK       :  OpenBLAS 0.3.29  USE64BITINT DYNAMIC_ARCH NO_AFFINITY Haswell SINGLE_THREADED
        Core in use  :  Haswell
   Copyright (c) 2011-2014, The OpenBLAS Project


  ***********************************
  * Starting time: Sat Aug 30 16:17:40 2025
  * Host name:     chemlab03
  * Process ID:    82255
  * Working dir.:  /home/vivek/mm-project/vivek/xtb-goat/B97-D-opt/k/0
  ***********************************



***************************************
The coordinates will be read from file: /home/vivek/mm-project/vivek/xtb-goat/xtb-goat/k/K_CONF/0.xyz
***************************************


Your calculation utilizes empirical dispersion correction


Warning: RI is on but no J-basis has been assigned. Assigning Def2/J (nothing to worry about!)
================================================================================

----- Orbital basis set information -----
Your calculation utilizes the basis: 6-31G**
   H-He, Li-Ne : W. J. Hehre, R. Ditchfield and J.A. Pople, J. Chem. Phys. 56, 2257 (1972).
                 Note: He and Ne are unpublished basis sets taken from the Gaussian program.
                 Note: Li and B from J. D. Dill and J. A. Pople, J. Chem. Phys. 62, 2921 (1975).
   Na - Ar     : M. M. Francl, W. J. Pietro, W. J. Hehre, J. S. Binkley, M. S. Gordon, 
                 D. J. DeFrees and J. A. Pople, J. Chem. Phys. 77, 3654 (1982).
   K - Zn      : V. A. Rassolov, J. A. Pople, M. A. Ratner, and T. L. Windus, J. Chem. Phys. 109, 1223 (1998).

----- AuxJ basis set information -----
Your calculation utilizes the auxiliary basis: def2/J
   H-Rn: F. Weigend, Phys. Chem. Chem. Phys. 8, 1057 (2006).
   Fr-Lr: K. Eichkorn, F. Weigend, O. Treutler, R. Ahlrichs; Theor. Chem. Acc. 97, 119 (1997).

================================================================================
                                        WARNINGS
                       Please study these warnings very carefully!
================================================================================


WARNING: Geometry Optimization
  ===> : Switching off AutoStart
         For restart on a previous wavefunction, please use MOREAD

INFO   : The exchange functional is Grimme's B97(-D)
         As described in S. Grimme, J. Comput. Chem. 27, 1787 (2006).
         Note that this functional defaults to a pure GGA. 

INFO   : The correlation functional is Grimme's B97(-D)
         As described in S. Grimme, J. Comput. Chem. 27, 1787 (2006).

================================================================================
                                       INPUT FILE
================================================================================
NAME = 0.inp
|  1> ! B97-D 6-31G** opt
|  2> 
|  3> * xyzfile 0 1 /home/vivek/mm-project/vivek/xtb-goat/xtb-goat/k/K_CONF/0.xyz
|  4> 
|  5>                          ****END OF INPUT****
================================================================================

                       *****************************
                       * Geometry Optimization Run *
                       *****************************

Geometry optimization settings:
Update method            Update   .... BFGS
Choice of coordinates    CoordSys .... (2022) Redundant Internals
Initial Hessian          InHess   .... Almloef's Model
Max. no of cycles        MaxIter  .... 72

Convergence Tolerances:
Energy Change            TolE     ....  5.0000e-06 Eh
Max. Gradient            TolMAXG  ....  3.0000e-04 Eh/bohr
RMS Gradient             TolRMSG  ....  1.0000e-04 Eh/bohr
Max. Displacement        TolMAXD  ....  4.0000e-03 bohr
RMS Displacement         TolRMSD  ....  2.0000e-03 bohr
Strict Convergence                .... False

------------------------------------------------------------------------------
                        ORCA OPTIMIZATION COORDINATE SETUP
------------------------------------------------------------------------------

The optimization will be done in redundant internal coordinates (2022)
Making redundant internal coordinates   ...  (2022 redundants) done
Evaluating the initial hessian          ...  (Almloef) done
Evaluating the coordinates              ...  done
Calculating the B-matrix                .... done
Calculating the G-matrix                .... done
The number of degrees of freedom        ....  104

    -----------------------------------------------------------------
                    Redundant Internal Coordinates


    -----------------------------------------------------------------
         Definition                    Initial Value    Approx d2E/dq
    -----------------------------------------------------------------
      1. B(C   1,C   0)                  1.5355         0.366118   
      2. B(N   4,H   2)                  1.0151         0.424711   
      3. B(N   4,C   0)                  1.4516         0.446299   
      4. B(N   4,H   3)                  1.0150         0.424808   
      5. B(C   5,C   1)                  1.5252         0.380276   
      6. B(H   6,C   1)                  1.0943         0.354433   
      7. B(H   7,C   1)                  1.0939         0.355024   
      8. B(C   8,C   5)                  1.5260         0.379126   
      9. B(H   9,C   5)                  1.0902         0.359791   
     10. B(H  10,C   5)                  1.0917         0.357877   
     11. B(C  11,C   8)                  1.5379         0.362895   
     12. B(H  12,C   8)                  1.0913         0.358325   
     13. B(H  13,C   8)                  1.0927         0.356554   
     14. B(C  14,C  11)                  1.5238         0.382236   
     15. B(N  16,C  11)                  1.4485         0.451438   
     16. B(O  17,H  15)                  0.9710         0.499407   
     17. B(O  17,C  14)                  1.3374         0.678833   
     18. B(H  18,C   0)                  1.0935         0.355489   
     19. B(H  19,C   0)                  1.0933         0.355761   
     20. B(H  20,N  16)                  1.0160         0.423320   
     21. B(O  21,C  14)                  1.2030         1.112167   
     22. B(H  22,C  11)                  1.0956         0.352774   
     23. B(H  23,N  16)                  1.0144         0.425749   
     24. A(C   1,C   0,H  19)          109.4212         0.322606   
     25. A(C   1,C   0,N   4)          114.8192         0.370982   
     26. A(N   4,C   0,H  18)          107.4637         0.331262   
     27. A(C   1,C   0,H  18)          109.4656         0.322565   
     28. A(H  18,C   0,H  19)          107.9205         0.289700   
     29. A(N   4,C   0,H  19)          107.5224         0.331304   
     30. A(C   5,C   1,H   6)          109.5537         0.324421   
     31. A(C   5,C   1,H   7)          109.4959         0.324510   
     32. A(C   0,C   1,H   6)          109.1044         0.322408   
     33. A(C   0,C   1,C   5)          111.8753         0.363204   
     34. A(H   6,C   1,H   7)          107.6566         0.289471   
     35. A(C   0,C   1,H   7)          109.0583         0.322496   
     36. A(C   0,N   4,H   3)          110.1476         0.338291   
     37. A(C   0,N   4,H   2)          110.1663         0.338278   
     38. A(H   2,N   4,H   3)          107.4887         0.301466   
     39. A(C   8,C   5,H  10)          109.2347         0.324775   
     40. A(C   1,C   5,H  10)          109.3790         0.324937   
     41. A(C   8,C   5,H   9)          108.6538         0.325060   
     42. A(C   1,C   5,H   9)          109.8926         0.325222   
     43. A(C   1,C   5,C   8)          111.7892         0.365379   
     44. A(H   9,C   5,H  10)          107.8025         0.290518   
     45. A(H  12,C   8,H  13)          108.3699         0.290163   
     46. A(C  11,C   8,H  12)          108.9226         0.322518   
     47. A(C  11,C   8,H  13)          108.6008         0.322256   
     48. A(C   5,C   8,H  13)          109.5696         0.324578   
     49. A(C   5,C   8,H  12)          110.1605         0.324842   
     50. A(C   5,C   8,C  11)          111.1564         0.362468   
     51. A(C  14,C  11,N  16)          112.4406         0.374484   
     52. A(C   8,C  11,N  16)          110.1120         0.371148   
     53. A(C   8,C  11,C  14)          108.4010         0.362974   
     54. A(N  16,C  11,H  22)          108.7789         0.331470   
     55. A(C  14,C  11,H  22)          108.1793         0.324445   
     56. A(C   8,C  11,H  22)          108.8526         0.321694   
     57. A(C  11,C  14,O  17)          112.7244         0.402098   
     58. A(O  17,C  14,O  21)          122.8337         0.484436   
     59. A(C  11,C  14,O  21)          124.4403         0.439113   
     60. A(H  20,N  16,H  23)          106.9241         0.301415   
     61. A(C  11,N  16,H  23)          110.3351         0.339063   
     62. A(C  11,N  16,H  20)          109.2984         0.338739   
     63. A(C  14,O  17,H  15)          110.5040         0.373337   
     64. D(H   6,C   1,C   0,H  19)    179.9898         0.010730   
     65. D(H   6,C   1,C   0,N   4)    -59.0271         0.010730   
     66. D(H   6,C   1,C   0,H  18)     61.9130         0.010730   
     67. D(C   5,C   1,C   0,N   4)    179.5905         0.010730   
     68. D(C   5,C   1,C   0,H  18)    -59.4693         0.010730   
     69. D(C   5,C   1,C   0,H  19)     58.6075         0.010730   
     70. D(H   2,N   4,C   0,C   1)     58.9935         0.016989   
     71. D(H   3,N   4,C   0,H  18)    178.5534         0.016989   
     72. D(H   3,N   4,C   0,C   1)    -59.4149         0.016989   
     73. D(H   2,N   4,C   0,H  19)   -178.9883         0.016989   
     74. D(H   2,N   4,C   0,H  18)    -63.0381         0.016989   
     75. D(H   9,C   5,C   1,C   0)    -59.7960         0.011525   
     76. D(C   8,C   5,C   1,H   6)     58.3532         0.011525   
     77. D(C   8,C   5,C   1,C   0)    179.4759         0.011525   
     78. D(C   8,C   5,C   1,H   7)    -59.4992         0.011525   
     79. D(H   9,C   5,C   1,H   7)     61.2290         0.011525   
     80. D(H   9,C   5,C   1,H   6)    179.0814         0.011525   
     81. D(H  12,C   8,C   5,H   9)    174.9746         0.011459   
     82. D(H  12,C   8,C   5,C   1)    -63.5788         0.011459   
     83. D(C  11,C   8,C   5,H  10)    -63.2148         0.011459   
     84. D(C  11,C   8,C   5,H   9)     54.1436         0.011459   
     85. D(H  12,C   8,C   5,H  10)     57.6162         0.011459   
     86. D(C  11,C   8,C   5,C   1)    175.5902         0.011459   
     87. D(N  16,C  11,C   8,H  13)     58.9497         0.010554   
     88. D(N  16,C  11,C   8,H  12)    176.7825         0.010554   
     89. D(N  16,C  11,C   8,C   5)    -61.6608         0.010554   
     90. D(C  14,C  11,C   8,H  13)    -64.4337         0.010554   
     91. D(C  14,C  11,C   8,H  12)     53.3991         0.010554   
     92. D(C  14,C  11,C   8,C   5)    174.9558         0.010554   
     93. D(O  17,C  14,C  11,N  16)    166.5438         0.010895   
     94. D(O  17,C  14,C  11,C   8)    -71.4866         0.010895   
     95. D(O  21,C  14,C  11,N  16)    -13.9101         0.010895   
     96. D(O  21,C  14,C  11,C   8)    108.0594         0.010895   
     97. D(O  17,C  14,C  11,H  22)     46.3974         0.010895   
     98. D(H  23,N  16,C  11,C  14)    -62.2392         0.017387   
     99. D(H  23,N  16,C  11,C   8)    176.7674         0.017387   
    100. D(H  20,N  16,C  11,H  22)    174.8636         0.017387   
    101. D(H  20,N  16,C  11,C  14)     55.0647         0.017387   
    102. D(H  20,N  16,C  11,C   8)    -65.9288         0.017387   
    103. D(H  15,O  17,C  14,O  21)     -0.6955         0.034312   
    104. D(H  15,O  17,C  14,C  11)    178.8590         0.034312   
    -----------------------------------------------------------------

Number of atoms                         .... 24
Number of degrees of freedom            .... 104


         *************************************************************
         *                GEOMETRY OPTIMIZATION CYCLE   1            *
         *************************************************************
---------------------------------
CARTESIAN COORDINATES (ANGSTROEM)
---------------------------------
  C    -14.222319    6.517460    0.616860
  C    -12.796813    6.574938    1.184620
  H    -15.052470    8.025132    1.708277
  H    -15.261701    6.542217    2.369400
  N    -15.248918    7.052940    1.492328
  C    -11.775381    5.987325    0.216373
  H    -12.539293    7.616226    1.401267
  H    -12.765552    6.022240    2.128064
  C    -10.357884    6.057114    0.777143
  H    -12.017544    4.944682    0.009343
  H    -11.815772    6.533255   -0.728141
  C     -9.355284    5.363752   -0.160494
  H    -10.056800    7.097642    0.910121
  H    -10.324599    5.561894    1.750606
  C     -7.951743    5.578670    0.392436
  H     -6.641117    6.944772    0.631698
  N     -9.687658    3.960372   -0.295044
  O     -7.529280    6.839993    0.253568
  H    -14.264271    7.079495   -0.320219
  H    -14.484974    5.478929    0.398297
  H     -9.557394    3.497177    0.599763
  O     -7.285130    4.720607    0.908809
  H     -9.409585    5.835304   -1.147924
  H     -9.060772    3.511243   -0.954082

----------------------------
CARTESIAN COORDINATES (A.U.)
----------------------------
  NO LB      ZA    FRAG     MASS         X           Y           Z
   0 C     6.0000    0    12.011  -26.876288   12.316215    1.165696
   1 C     6.0000    0    12.011  -24.182472   12.424832    2.238608
   2 H     1.0000    0     1.008  -28.445045   15.165302    3.228175
   3 H     1.0000    0     1.008  -28.840435   12.362999    4.477517
   4 N     7.0000    0    14.007  -28.816279   13.328126    2.820090
   5 C     6.0000    0    12.011  -22.252245   11.314405    0.408886
   6 H     1.0000    0     1.008  -23.695830   14.392581    2.648010
   7 H     1.0000    0     1.008  -24.123398   11.380383    4.021458
   8 C     6.0000    0    12.011  -19.573564   11.446286    1.468587
   9 H     1.0000    0     1.008  -22.709867    9.344094    0.017656
  10 H     1.0000    0     1.008  -22.328574   12.346063   -1.375987
  11 C     6.0000    0    12.011  -17.678924   10.136022   -0.303289
  12 H     1.0000    0     1.008  -19.004597   13.412599    1.719880
  13 H     1.0000    0     1.008  -19.510665   10.510457    3.308165
  14 C     6.0000    0    12.011  -15.026616   10.542159    0.741596
  15 H     1.0000    0     1.008  -12.549892   13.123717    1.193735
  16 N     7.0000    0    14.007  -18.307021    7.484019   -0.557552
  17 O     8.0000    0    15.999  -14.228278   12.925714    0.479174
  18 H     1.0000    0     1.008  -26.955566   13.378307   -0.605126
  19 H     1.0000    0     1.008  -27.372634   10.353675    0.752673
  20 H     1.0000    0     1.008  -18.060858    6.608707    1.133387
  21 O     8.0000    0    15.999  -13.766900    8.920655    1.717400
  22 H     1.0000    0     1.008  -17.781538   11.027126   -2.169262
  23 H     1.0000    0     1.008  -17.122378    6.635288   -1.802954

--------------------------------
INTERNAL COORDINATES (ANGSTROEM)
--------------------------------
 C      0   0   0     0.000000000000     0.00000000     0.00000000
 C      1   0   0     1.535488208630     0.00000000     0.00000000
 H      1   2   0     2.037993227840    98.76892290     0.00000000
 H      3   1   2     1.637039437820    66.30962270   265.91378241
 N      4   3   1     1.015016012090    36.25694428   320.79312574
 C      2   1   3     1.525160464798   111.87530931   203.51142670
 H      2   1   3     1.094317966480   109.10440608   324.89373818
 H      2   1   3     1.093864128220   109.05826925    82.23329543
 C      6   2   1     1.525984697633   111.78922715   179.47585493
 H      6   2   1     1.090233903176   109.89255385   300.20402939
 H      6   2   1     1.091685768844   109.37895504    58.36441703
 C      9   6   2     1.537895049273   111.15637414   175.59019036
 H      9   6   2     1.091344949944   110.16047785   296.42119806
 H      9   6   2     1.092693669029   109.56957976    55.55272290
 C     12   9   6     1.523761052676   108.40103377   174.95580607
 H     15  12   9     1.908198341631   141.18050615   289.38088072
 N     12   9   6     1.448464879245   110.11198766   298.33921594
 O     16  15  12     0.970976539709    41.03186960   358.32098510
 H      1   2   3     1.093507884808   109.46560636    97.01925963
 H      1   2   3     1.093299688532   109.42118304   215.09603645
 H     17  12   9     1.015971145419   109.29842711   294.07122461
 O     15  12   9     1.203032520787   124.44025692   108.05943861
 H     12   9   6     1.095594877527   108.85259189    57.50182286
 H     17  12   9     1.014413608324   110.33509582   176.76737948

---------------------------
INTERNAL COORDINATES (A.U.)
---------------------------
 C      0   0   0     0.000000000000     0.00000000     0.00000000
 C      1   0   0     2.901652196177     0.00000000     0.00000000
 H      1   2   0     3.851249063404    98.76892290     0.00000000
 H      3   1   2     3.093556207909    66.30962270   265.91378241
 N      4   3   1     1.918102284396    36.25694428   320.79312574
 C      2   1   3     2.882135588752   111.87530931   203.51142670
 H      2   1   3     2.067961260076   109.10440608   324.89373818
 H      2   1   3     2.067103630056   109.05826925    82.23329543
 C      6   2   1     2.883693163081   111.78922715   179.47585493
 H      6   2   1     2.060243498919   109.89255385   300.20402939
 H      6   2   1     2.062987127414   109.37895504    58.36441703
 C      9   6   2     2.906200465840   111.15637414   175.59019036
 H      9   6   2     2.062343073031   110.16047785   296.42119806
 H      9   6   2     2.064891782734   109.56957976    55.55272290
 C     12   9   6     2.879491083094   108.40103377   174.95580607
 H     15  12   9     3.605972274886   141.18050615   289.38088072
 N     12   9   6     2.737201936377   110.11198766   298.33921594
 O     16  15  12     1.834879742512    41.03186960   358.32098510
 H      1   2   3     2.066430427570   109.46560636    97.01925963
 H      1   2   3     2.066036993626   109.42118304   215.09603645
 H     17  12   9     1.919907224809   109.29842711   294.07122461
 O     15  12   9     2.273401994489   124.44025692   108.05943861
 H     12   9   6     2.070374272253   108.85259189    57.50182286
 H     17  12   9     1.916963906255   110.33509582   176.76737948

---------------------
BASIS SET INFORMATION
---------------------
There are 4 groups of distinct atoms

 Group   1 Type C   : 10s4p1d contracted to 3s2p1d pattern {631/31/1}
 Group   2 Type H   : 4s1p contracted to 2s1p pattern {31/1}
 Group   3 Type N   : 10s4p1d contracted to 3s2p1d pattern {631/31/1}
 Group   4 Type O   : 10s4p1d contracted to 3s2p1d pattern {631/31/1}

Atom   0C    basis set group =>   1
Atom   1C    basis set group =>   1
Atom   2H    basis set group =>   2
Atom   3H    basis set group =>   2
Atom   4N    basis set group =>   3
Atom   5C    basis set group =>   1
Atom   6H    basis set group =>   2
Atom   7H    basis set group =>   2
Atom   8C    basis set group =>   1
Atom   9H    basis set group =>   2
Atom  10H    basis set group =>   2
Atom  11C    basis set group =>   1
Atom  12H    basis set group =>   2
Atom  13H    basis set group =>   2
Atom  14C    basis set group =>   1
Atom  15H    basis set group =>   2
Atom  16N    basis set group =>   3
Atom  17O    basis set group =>   4
Atom  18H    basis set group =>   2
Atom  19H    basis set group =>   2
Atom  20H    basis set group =>   2
Atom  21O    basis set group =>   4
Atom  22H    basis set group =>   2
Atom  23H    basis set group =>   2
---------------------------------
AUXILIARY/J BASIS SET INFORMATION
---------------------------------
There are 4 groups of distinct atoms

 Group   1 Type C   : 12s5p4d2f1g contracted to 6s4p3d1f1g pattern {711111/2111/211/2/1}
 Group   2 Type H   : 5s2p1d contracted to 3s1p1d pattern {311/2/1}
 Group   3 Type N   : 12s5p4d2f1g contracted to 6s4p3d1f1g pattern {711111/2111/211/2/1}
 Group   4 Type O   : 12s5p4d2f1g contracted to 6s4p3d1f1g pattern {711111/2111/211/2/1}

Atom   0C    basis set group =>   1
Atom   1C    basis set group =>   1
Atom   2H    basis set group =>   2
Atom   3H    basis set group =>   2
Atom   4N    basis set group =>   3
Atom   5C    basis set group =>   1
Atom   6H    basis set group =>   2
Atom   7H    basis set group =>   2
Atom   8C    basis set group =>   1
Atom   9H    basis set group =>   2
Atom  10H    basis set group =>   2
Atom  11C    basis set group =>   1
Atom  12H    basis set group =>   2
Atom  13H    basis set group =>   2
Atom  14C    basis set group =>   1
Atom  15H    basis set group =>   2
Atom  16N    basis set group =>   3
Atom  17O    basis set group =>   4
Atom  18H    basis set group =>   2
Atom  19H    basis set group =>   2
Atom  20H    basis set group =>   2
Atom  21O    basis set group =>   4
Atom  22H    basis set group =>   2
Atom  23H    basis set group =>   2
------------------------------------------------------------------------------
                             ORCA STARTUP CALCULATIONS
                           -- RI-GTO INTEGRALS CHOSEN --
------------------------------------------------------------------------------
------------------------------------------------------------------------------
                   ___                                                        
                  /   \      - P O W E R E D   B Y -                         
                 /     \                                                     
                 |  |  |   _    _      __       _____    __    __             
                 |  |  |  | |  | |    /  \     |  _  \  |  |  /  |          
                  \  \/   | |  | |   /    \    | | | |  |  | /  /          
                 / \  \   | |__| |  /  /\  \   | |_| |  |  |/  /          
                |  |  |   |  __  | /  /__\  \  |    /   |      \           
                |  |  |   | |  | | |   __   |  |    \   |  |\   \          
                \     /   | |  | | |  |  |  |  | |\  \  |  | \   \       
                 \___/    |_|  |_| |__|  |__|  |_| \__\ |__|  \__/        
                                                                              
                      - O R C A' S   B I G   F R I E N D -                    
                                      &                                       
                       - I N T E G R A L  F E E D E R -                       
                                                                              
 v1 FN, 2020, v2 2021, v3 2022-2024                                           
------------------------------------------------------------------------------


----------------------
SHARK INTEGRAL PACKAGE
----------------------

Number of atoms                             ...     24
Number of basis functions                   ...    210
Number of shells                            ...    102
Maximum angular momentum                    ...      2
Integral batch strategy                     ... SHARK/LIBINT Hybrid
RI-J (if used) integral strategy            ... SPLIT-RIJ (Revised 2003 algorithm where possible)
Printlevel                                  ...      1
Contraction scheme used                     ... SEGMENTED contraction
Prescreening option                         ... SCHWARTZ
   Thresh                                   ... 2.500e-11
   Tcut                                     ... 2.500e-12
   Tpresel                                  ... 2.500e-12 
Coulomb Range Separation                    ... NOT USED
Exchange Range Separation                   ... NOT USED
Multipole approximations                    ... NOT USED
Finite Nucleus Model                        ... NOT USED
CABS basis                                  ... NOT available
Auxiliary Coulomb fitting basis             ... AVAILABLE
   # of basis functions in Aux-J            ...    644
   # of shells in Aux-J                     ...    220
   Maximum angular momentum in Aux-J        ...      4
Auxiliary J/K fitting basis                 ... NOT available
Auxiliary Correlation fitting basis         ... NOT available
Auxiliary 'external' fitting basis          ... NOT available

Checking pre-screening integrals            ... done (  0.0 sec) Dimension = 102
   => SHARK Basis and OBASIS are compatible. Storing Pre-screening
Shell pair information
Shell pair cut-off parameter TPreSel        ...   2.5e-12
Total number of shell pairs                 ...      5253
Shell pairs after pre-screening             ...      4240
Total number of primitive shell pairs       ...     24562
Primitive shell pairs kept                  ...     12975
          la=0 lb=0:   1409 shell pairs
          la=1 lb=0:   1600 shell pairs
          la=1 lb=1:    472 shell pairs
          la=2 lb=0:    456 shell pairs
          la=2 lb=1:    262 shell pairs
          la=2 lb=2:     41 shell pairs

Checking whether 4 symmetric matrices of dimension 210 fit in memory
:Max Core in MB      =   4096.00
 MB in use           =      9.05
 MB left             =   4086.95
 MB needed           =      0.68
 Data fit in memory  = YES
Calculating RI/J V-Matrix + Cholesky decomp.... done (  0.0 sec)
Calculating Nuclear repulsion               ... done (  0.0 sec) ENN=    544.166216142536 Eh

Diagonalization of the overlap matrix:
Smallest eigenvalue                        ... 2.497e-03
Time for diagonalization                   ...    0.002 sec
Threshold for overlap eigenvalues          ... 1.000e-07
Number of eigenvalues below threshold      ... 0
Time for construction of square roots      ...    0.001 sec
Total time needed                          ...    0.003 sec

-------------------
DFT GRID GENERATION
-------------------

General Integration Accuracy     IntAcc      ... 4.388
Radial Grid Type                 RadialGrid  ... OptM3 with GC (2021)
Angular Grid (max. ang.)         AngularGrid ... 4 (Lebedev-302)
Angular grid pruning method      GridPruning ... 4 (adaptive)
Weight generation scheme         WeightScheme... mBecke (2022)
Basis function cutoff            BFCut       ... 1.0000e-11
Integration weight cutoff        WCut        ... 1.0000e-14
Partially contracted basis set               ... off
Rotationally invariant grid construction     ... off
Angular grids for H and He will be reduced by one unit

Total number of grid points                  ...   104962
Total number of batches                      ...     1653
Average number of points per batch           ...       63
Average number of grid points per atom       ...     4373
Grids setup in   0.4 sec
Initializing property integral containers    ... done (  0.0 sec)

SHARK setup successfully completed in   0.5 seconds

Maximum memory used throughout the entire STARTUP-calculation: 43.9 MB
-------------------------------------------------------------------------------
                                 ORCA GUESS
                   Start orbitals & Density for SCF / CASSCF
-------------------------------------------------------------------------------

------------
SCF SETTINGS
------------
Hamiltonian:
 Density Functional     Method          .... DFT(GTOs)
 Exchange Functional    Exchange        .... B97(D)
 Correlation Functional Correlation     .... B97(D)
 Gradients option       PostSCFGGA      .... off
 RI-approximation to the Coulomb term is turned on
   Number of AuxJ basis functions       .... 644


General Settings:
 Integral files         IntName         .... 0
 Hartree-Fock type      HFTyp           .... RHF
 Total Charge           Charge          ....    0
 Multiplicity           Mult            ....    1
 Number of Electrons    NEL             ....   80
 Basis Dimension        Dim             ....  210
 Nuclear Repulsion      ENuc            ....    544.1662161425 Eh

Convergence Acceleration:
 AO-DIIS                CNVDIIS         .... on
   Start iteration      DIISMaxIt       ....    12
   Startup error        DIISStart       ....  0.200000
   # of expansion vecs  DIISMaxEq       ....     5
   Bias factor          DIISBfac        ....   1.050
   Max. coefficient     DIISMaxC        ....  10.000
 MO-DIIS                CNVKDIIS        .... off
 Trust-Rad. Augm. Hess. CNVTRAH         .... auto
   Auto Start mean grad. ratio tolernc. ....  1.125000
   Auto Start start iteration           ....    50
   Auto Start num. interpolation iter.  ....    10
   Max. Number of Micro iterations      ....    24
   Max. Number of Macro iterations      .... Maxiter - #DIIS iter
   Number of Davidson start vectors     ....     2
   Converg. threshold    (grad. norm)   ....   1.000e-05
   Grad. Scal. Fac. for Micro threshold ....   0.100
   Minimum threshold for Micro iter.    ....   1.000e-02
   NR start threshold (gradient norm)   ....   1.000e-04
   Initial trust radius                 ....   0.400
   Minimum AH scaling param. (alpha)    ....   1.000
   Maximum AH scaling param. (alpha)    .... 1000.000
   Quad. conv. algorithm                .... NR
   White noise on init. David. guess    .... on
   Maximum white noise                  ....   0.010
   Pseudo random numbers                .... off
   Inactive MOs                         .... canonical
   Orbital update algorithm             .... Taylor
   Preconditioner                       .... Diag
   Full preconditioner red. dimension   ....   250
 SOSCF                 CNVSOSCF           .... on
   Start iteration     SOSCFMaxIt         ....   150
   Startup grad/error  SOSCFStart         ....  0.003300
   Hessian update      SOSCFHessUp        .... L-BFGS
   Autom. constraints  SOSCFAutoConstrain .... off
 Level Shifting         CNVShift        .... on
   Level shift para.    LevelShift      ....    0.2500
   Turn off err/grad.   ShiftErr        ....    0.0010
 Zerner damping         CNVZerner       .... off
 Static damping         CNVDamp         .... on
   Fraction old density DampFac         ....    0.7000
   Max. Damping (<1)    DampMax         ....    0.9800
   Min. Damping (>=0)   DampMin         ....    0.0000
   Turn off err/grad.   DampErr         ....    0.1000

SCF Procedure:
 Maximum # iterations   MaxIter         ....   125
 SCF integral mode      SCFMode         .... Direct
   Integral package                     .... SHARK and LIBINT hybrid scheme
 Reset frequency        DirectResetFreq ....    20
 Integral Threshold     Thresh          ....  2.500e-11 Eh
 Primitive CutOff       TCut            ....  2.500e-12 Eh

Convergence Tolerance:
 Convergence Check Mode ConvCheckMode   .... Total+1el-Energy
 Convergence forced     ConvForced      .... 0
 Energy Change          TolE            ....  1.000e-08 Eh
 1-El. energy change                    ....  1.000e-05 Eh
 Orbital Gradient       TolG            ....  1.000e-05
 Orbital Rotation angle TolX            ....  1.000e-05
 DIIS Error             TolErr          ....  5.000e-07

------------------------------
INITIAL GUESS: MODEL POTENTIAL
------------------------------
Loading Hartree-Fock densities                     ... done
Calculating cut-offs                               ... done
Initializing the effective Hamiltonian             ... done
Setting up the integral package (SHARK)            ... done
Starting the Coulomb interaction                   ... done (   0.1 sec)
Making the grid                                    ... done (   0.1 sec)
Mapping shells                                     ... done
Starting the XC term evaluation                    ... done (   0.1 sec)
  promolecular density results
     # of electrons  =     79.990080159
     EX              =    -63.611496544
     EC              =     -3.476672545
     EX+EC           =    -67.088169089
Transforming the Hamiltonian                       ... done (   0.0 sec)
Diagonalizing the Hamiltonian                      ... done (   0.0 sec)
Back transforming the eigenvectors                 ... done (   0.0 sec)
Now organizing SCF variables                       ... done
                      ------------------
                      INITIAL GUESS DONE (   0.3 sec)
                      ------------------
             **** ENERGY FILE WAS UPDATED (0.en.tmp) ****
Finished Guess after   0.3 sec
Maximum memory used throughout the entire GUESS-calculation: 14.4 MB

-------------------------------------------------------------------------------------------
                                      ORCA LEAN-SCF
                              memory conserving SCF solver
-------------------------------------------------------------------------------------------

----------------------------------------D-I-I-S--------------------------------------------
Iteration    Energy (Eh)           Delta-E    RMSDP     MaxDP     DIISErr   Damp  Time(sec)
-------------------------------------------------------------------------------------------
               ***  Starting incremental Fock matrix formation  ***
    1    -496.2774850469882040     0.00e+00  3.51e-03  1.04e-01  2.56e-01  0.700   0.6
    2    -496.4804463817413307    -2.03e-01  2.31e-03  5.34e-02  9.89e-02  0.700   0.6
                               ***Turning on AO-DIIS***
    3    -496.5439198840695099    -6.35e-02  8.91e-04  1.78e-02  3.14e-02  0.700   0.6
    4    -496.5846501629157501    -4.07e-02  1.19e-03  2.07e-02  1.07e-02  0.000   0.6
    5    -496.6788810666041627    -9.42e-02  3.97e-04  8.95e-03  1.11e-02  0.000   0.6
    6    -496.6798587933901672    -9.78e-04  1.48e-04  2.87e-03  3.40e-03  0.000   0.5
                              *** Initializing SOSCF ***
---------------------------------------S-O-S-C-F--------------------------------------
Iteration    Energy (Eh)           Delta-E    RMSDP     MaxDP     MaxGrad    Time(sec)
--------------------------------------------------------------------------------------
    7    -496.6799387276967082    -7.99e-05  5.57e-05  1.23e-03  1.78e-03     0.5
               *** Restarting incremental Fock matrix formation ***
    8    -496.6799503964471114    -1.17e-05  3.79e-05  7.40e-04  1.12e-04     0.6
    9    -496.6799497695490118     6.27e-07  1.84e-05  6.84e-04  4.84e-04     0.5
   10    -496.6799514280617132    -1.66e-06  1.83e-05  4.39e-04  2.23e-04     0.5
   11    -496.6799513489015681     7.92e-08  8.17e-06  1.88e-04  1.15e-04     0.5
   12    -496.6799517899585226    -4.41e-07  4.54e-06  1.03e-04  1.78e-05     0.5
   13    -496.6799517816969001     8.26e-09  1.87e-06  5.62e-05  2.34e-05     0.5
                 **** Energy Check signals convergence ****

               *****************************************************
               *                     SUCCESS                       *
               *           SCF CONVERGED AFTER  13 CYCLES          *
               *****************************************************

             **** ENERGY FILE WAS UPDATED (0.en.tmp) ****

----------------
TOTAL SCF ENERGY
----------------

Total Energy       :       -496.67995180531648 Eh          -13515.34860 eV

Components:
Nuclear Repulsion  :        544.16621614253609 Eh           14807.51554 eV
Electronic Energy  :      -1040.84616794785256 Eh          -28322.86414 eV
One Electron Energy:      -1754.96450703355777 Eh          -47755.01205 eV
Two Electron Energy:        714.11833908570520 Eh           19432.14792 eV

Virial components:
Potential Energy   :       -990.78288885083498 Eh          -26960.57305 eV
Kinetic Energy     :        494.10293704551850 Eh           13445.22446 eV
Virial Ratio       :          2.00521554228195

DFT components:
N(Alpha)           :       40.000064212877 electrons
N(Beta)            :       40.000064212877 electrons
N(Total)           :       80.000128425754 electrons
E(X)               :      -65.200056422385 Eh       
E(C)               :       -3.468170902643 Eh       
E(XC)              :      -68.668227325029 Eh       

---------------
SCF CONVERGENCE
---------------

  Last Energy change         ...   -8.2616e-09  Tolerance :   1.0000e-08
  Last MAX-Density change    ...    5.6169e-05  Tolerance :   1.0000e-07
  Last RMS-Density change    ...    1.8682e-06  Tolerance :   5.0000e-09
  Last DIIS Error            ...    1.7782e-03  Tolerance :   5.0000e-07
  Last Orbital Gradient      ...    2.3435e-05  Tolerance :   1.0000e-05
  Last Orbital Rotation      ...    1.9645e-05  Tolerance :   1.0000e-05


----------------
ORBITAL ENERGIES
----------------

  NO   OCC          E(Eh)            E(eV) 
   0   2.0000     -18.814020      -511.9555 
   1   2.0000     -18.753096      -510.2977 
   2   2.0000     -13.986969      -380.6048 
   3   2.0000     -13.975342      -380.2884 
   4   2.0000     -10.026263      -272.8285 
   5   2.0000      -9.946690      -270.6632 
   6   2.0000      -9.919290      -269.9176 
   7   2.0000      -9.908415      -269.6217 
   8   2.0000      -9.895246      -269.2633 
   9   2.0000      -9.895141      -269.2605 
  10   2.0000      -1.020441       -27.7676 
  11   2.0000      -0.931453       -25.3461 
  12   2.0000      -0.816430       -22.2162 
  13   2.0000      -0.797752       -21.7079 
  14   2.0000      -0.718066       -19.5396 
  15   2.0000      -0.667912       -18.1748 
  16   2.0000      -0.616101       -16.7650 
  17   2.0000      -0.559934       -15.2366 
  18   2.0000      -0.528632       -14.3848 
  19   2.0000      -0.520488       -14.1632 
  20   2.0000      -0.456509       -12.4222 
  21   2.0000      -0.445399       -12.1199 
  22   2.0000      -0.438608       -11.9351 
  23   2.0000      -0.420616       -11.4455 
  24   2.0000      -0.406614       -11.0645 
  25   2.0000      -0.392834       -10.6896 
  26   2.0000      -0.378366       -10.2959 
  27   2.0000      -0.376364       -10.2414 
  28   2.0000      -0.351297        -9.5593 
  29   2.0000      -0.345336        -9.3971 
  30   2.0000      -0.334048        -9.0899 
  31   2.0000      -0.314570        -8.5599 
  32   2.0000      -0.299115        -8.1393 
  33   2.0000      -0.297965        -8.1080 
  34   2.0000      -0.287980        -7.8363 
  35   2.0000      -0.282179        -7.6785 
  36   2.0000      -0.272597        -7.4177 
  37   2.0000      -0.223856        -6.0914 
  38   2.0000      -0.196166        -5.3379 
  39   2.0000      -0.175870        -4.7857 
  40   0.0000      -0.015437        -0.4201 
  41   0.0000       0.050965         1.3868 
  42   0.0000       0.065923         1.7939 
  43   0.0000       0.070708         1.9241 
  44   0.0000       0.090784         2.4704 
  45   0.0000       0.094923         2.5830 
  46   0.0000       0.111024         3.0211 
  47   0.0000       0.121579         3.3083 
  48   0.0000       0.133714         3.6385 
  49   0.0000       0.149976         4.0811 
  50   0.0000       0.160291         4.3617 
*Only the first 10 virtual orbitals were printed.

                    ********************************
                    * MULLIKEN POPULATION ANALYSIS *
                    ********************************

-----------------------
MULLIKEN ATOMIC CHARGES
-----------------------
   0 C :   -0.082707
   1 C :   -0.195815
   2 H :    0.230526
   3 H :    0.230914
   4 N :   -0.573633
   5 C :   -0.181038
   6 H :    0.085353
   7 H :    0.087391
   8 C :   -0.192784
   9 H :    0.127122
  10 H :    0.093502
  11 C :   -0.047564
  12 H :    0.117027
  13 H :    0.099879
  14 C :    0.483199
  15 H :    0.317240
  16 N :   -0.549883
  17 O :   -0.455338
  18 H :    0.104258
  19 H :    0.107015
  20 H :    0.245103
  21 O :   -0.418568
  22 H :    0.124328
  23 H :    0.244476
Sum of atomic charges:    0.0000000

--------------------------------
MULLIKEN REDUCED ORBITAL CHARGES
--------------------------------
  0 C s       :     3.196648  s :     3.196648
      pz      :     0.941802  p :     2.833631
      px      :     0.861564
      py      :     1.030265
      dz2     :     0.011015  d :     0.052428
      dxz     :     0.010588
      dyz     :     0.008556
      dx2y2   :     0.014852
      dxy     :     0.007417

  1 C s       :     3.227096  s :     3.227096
      pz      :     0.986792  p :     2.932280
      px      :     0.935187
      py      :     1.010301
      dz2     :     0.007617  d :     0.036439
      dxz     :     0.006770
      dyz     :     0.007137
      dx2y2   :     0.009644
      dxy     :     0.005270

  2 H s       :     0.745515  s :     0.745515
      pz      :     0.005483  p :     0.023959
      px      :     0.007372
      py      :     0.011104

  3 H s       :     0.745125  s :     0.745125
      pz      :     0.009950  p :     0.023961
      px      :     0.007520
      py      :     0.006491

  4 N s       :     3.588246  s :     3.588246
      pz      :     1.208069  p :     3.956624
      px      :     1.623737
      py      :     1.124818
      dz2     :     0.007190  d :     0.028763
      dxz     :     0.004395
      dyz     :     0.006390
      dx2y2   :     0.006332
      dxy     :     0.004455

  5 C s       :     3.224476  s :     3.224476
      pz      :     0.969287  p :     2.919729
      px      :     0.907410
      py      :     1.043032
      dz2     :     0.007763  d :     0.036833
      dxz     :     0.007008
      dyz     :     0.006953
      dx2y2   :     0.009823
      dxy     :     0.005285

  6 H s       :     0.903201  s :     0.903201
      pz      :     0.002697  p :     0.011447
      px      :     0.002776
      py      :     0.005974

  7 H s       :     0.901145  s :     0.901145
      pz      :     0.005436  p :     0.011465
      px      :     0.002560
      py      :     0.003468

  8 C s       :     3.232902  s :     3.232902
      pz      :     0.977011  p :     2.923315
      px      :     0.934900
      py      :     1.011404
      dz2     :     0.008498  d :     0.036567
      dxz     :     0.006927
      dyz     :     0.005812
      dx2y2   :     0.008786
      dxy     :     0.006544

  9 H s       :     0.860910  s :     0.860910
      pz      :     0.002695  p :     0.011968
      px      :     0.002690
      py      :     0.006583

 10 H s       :     0.894888  s :     0.894888
      pz      :     0.005503  p :     0.011610
      px      :     0.002566
      py      :     0.003541

 11 C s       :     3.199908  s :     3.199908
      pz      :     1.023979  p :     2.790133
      px      :     0.922082
      py      :     0.844073
      dz2     :     0.010069  d :     0.057523
      dxz     :     0.007114
      dyz     :     0.011461
      dx2y2   :     0.015758
      dxy     :     0.013121

 12 H s       :     0.871410  s :     0.871410
      pz      :     0.002573  p :     0.011563
      px      :     0.002845
      py      :     0.006145

 13 H s       :     0.888574  s :     0.888574
      pz      :     0.005758  p :     0.011547
      px      :     0.002497
      py      :     0.003293

 14 C s       :     2.989277  s :     2.989277
      pz      :     0.800445  p :     2.403118
      px      :     0.888989
      py      :     0.713684
      dz2     :     0.013824  d :     0.124406
      dxz     :     0.013554
      dyz     :     0.023466
      dx2y2   :     0.044146
      dxy     :     0.029416

 15 H s       :     0.644855  s :     0.644855
      pz      :     0.011101  p :     0.037905
      px      :     0.019478
      py      :     0.007325

 16 N s       :     3.585820  s :     3.585820
      pz      :     1.209869  p :     3.935635
      px      :     1.656152
      py      :     1.069615
      dz2     :     0.004123  d :     0.028428
      dxz     :     0.005652
      dyz     :     0.007218
      dx2y2   :     0.004458
      dxy     :     0.006978

 17 O s       :     3.824154  s :     3.824154
      pz      :     1.726684  p :     4.608460
      px      :     1.412795
      py      :     1.468980
      dz2     :     0.002549  d :     0.022725
      dxz     :     0.003040
      dyz     :     0.004909
      dx2y2   :     0.008657
      dxy     :     0.003571

 18 H s       :     0.884955  s :     0.884955
      pz      :     0.005290  p :     0.010787
      px      :     0.002215
      py      :     0.003281

 19 H s       :     0.882198  s :     0.882198
      pz      :     0.002421  p :     0.010787
      px      :     0.002408
      py      :     0.005958

 20 H s       :     0.730947  s :     0.730947
      pz      :     0.010193  p :     0.023950
      px      :     0.007805
      py      :     0.005952

 21 O s       :     3.854778  s :     3.854778
      pz      :     1.413193  p :     4.535747
      px      :     1.577327
      py      :     1.545227
      dz2     :     0.005179  d :     0.028043
      dxz     :     0.003812
      dyz     :     0.006150
      dx2y2   :     0.006004
      dxy     :     0.006897

 22 H s       :     0.864666  s :     0.864666
      pz      :     0.005850  p :     0.011006
      px      :     0.002524
      py      :     0.002632

 23 H s       :     0.731584  s :     0.731584
      pz      :     0.008515  p :     0.023941
      px      :     0.009425
      py      :     0.006000



                     *******************************
                     * LOEWDIN POPULATION ANALYSIS *
                     *******************************

----------------------
LOEWDIN ATOMIC CHARGES
----------------------
   0 C :   -0.073919
   1 C :   -0.144541
   2 H :    0.118779
   3 H :    0.118965
   4 N :   -0.268782
   5 C :   -0.124371
   6 H :    0.058057
   7 H :    0.059458
   8 C :   -0.116254
   9 H :    0.076258
  10 H :    0.064069
  11 C :   -0.051105
  12 H :    0.073845
  13 H :    0.067255
  14 C :    0.100421
  15 H :    0.181407
  16 N :   -0.242543
  17 O :   -0.141697
  18 H :    0.065031
  19 H :    0.066234
  20 H :    0.127355
  21 O :   -0.224177
  22 H :    0.082304
  23 H :    0.127952

-------------------------------
LOEWDIN REDUCED ORBITAL CHARGES
-------------------------------
  0 C s       :     2.891046  s :     2.891046
      pz      :     1.019172  p :     3.067557
      px      :     0.980293
      py      :     1.068092
      dz2     :     0.023405  d :     0.115316
      dxz     :     0.025126
      dyz     :     0.017782
      dx2y2   :     0.034194
      dxy     :     0.014809

  1 C s       :     2.912208  s :     2.912208
      pz      :     1.056726  p :     3.150237
      px      :     1.025879
      py      :     1.067632
      dz2     :     0.015790  d :     0.082096
      dxz     :     0.017198
      dyz     :     0.015181
      dx2y2   :     0.022711
      dxy     :     0.011215

  2 H s       :     0.802633  s :     0.802633
      pz      :     0.014845  p :     0.078588
      px      :     0.023050
      py      :     0.040693

  3 H s       :     0.802430  s :     0.802430
      pz      :     0.036640  p :     0.078605
      px      :     0.022566
      py      :     0.019399

  4 N s       :     3.197770  s :     3.197770
      pz      :     1.249561  p :     4.012765
      px      :     1.603331
      py      :     1.159873
      dz2     :     0.013930  d :     0.058247
      dxz     :     0.009036
      dyz     :     0.014276
      dx2y2   :     0.013253
      dxy     :     0.007753

  5 C s       :     2.895794  s :     2.895794
      pz      :     1.053051  p :     3.146092
      px      :     1.005954
      py      :     1.087087
      dz2     :     0.015958  d :     0.082484
      dxz     :     0.017896
      dyz     :     0.014477
      dx2y2   :     0.022859
      dxy     :     0.011295

  6 H s       :     0.903112  s :     0.903112
      pz      :     0.007796  p :     0.038832
      px      :     0.008264
      py      :     0.022772

  7 H s       :     0.901703  s :     0.901703
      pz      :     0.020351  p :     0.038839
      px      :     0.007210
      py      :     0.011278

  8 C s       :     2.903499  s :     2.903499
      pz      :     1.050633  p :     3.131172
      px      :     1.012817
      py      :     1.067721
      dz2     :     0.017337  d :     0.081583
      dxz     :     0.017276
      dyz     :     0.012477
      dx2y2   :     0.020456
      dxy     :     0.014038

  9 H s       :     0.882506  s :     0.882506
      pz      :     0.007729  p :     0.041236
      px      :     0.007895
      py      :     0.025612

 10 H s       :     0.896926  s :     0.896926
      pz      :     0.020496  p :     0.039004
      px      :     0.006978
      py      :     0.011530

 11 C s       :     2.880962  s :     2.880962
      pz      :     1.063675  p :     3.039095
      px      :     1.015363
      py      :     0.960057
      dz2     :     0.021747  d :     0.131048
      dxz     :     0.018255
      dyz     :     0.023324
      dx2y2   :     0.038436
      dxy     :     0.029286

 12 H s       :     0.886223  s :     0.886223
      pz      :     0.007242  p :     0.039933
      px      :     0.008571
      py      :     0.024120

 13 H s       :     0.893323  s :     0.893323
      pz      :     0.021762  p :     0.039422
      px      :     0.007142
      py      :     0.010518

 14 C s       :     2.858387  s :     2.858387
      pz      :     0.840827  p :     2.743449
      px      :     0.985905
      py      :     0.916717
      dz2     :     0.030463  d :     0.297743
      dxz     :     0.030969
      dyz     :     0.054934
      dx2y2   :     0.111053
      dxy     :     0.070323

 15 H s       :     0.702860  s :     0.702860
      pz      :     0.032918  p :     0.115733
      px      :     0.062232
      py      :     0.020583

 16 N s       :     3.194708  s :     3.194708
      pz      :     1.222527  p :     3.989991
      px      :     1.634315
      py      :     1.133149
      dz2     :     0.009442  d :     0.057843
      dxz     :     0.008088
      dyz     :     0.017250
      dx2y2   :     0.010164
      dxy     :     0.012900

 17 O s       :     3.470258  s :     3.470258
      pz      :     1.698309  p :     4.620452
      px      :     1.417072
      py      :     1.505071
      dz2     :     0.005700  d :     0.050987
      dxz     :     0.005864
      dyz     :     0.008329
      dx2y2   :     0.020126
      dxy     :     0.010968

 18 H s       :     0.897267  s :     0.897267
      pz      :     0.020403  p :     0.037702
      px      :     0.005982
      py      :     0.011318

 19 H s       :     0.895970  s :     0.895970
      pz      :     0.007408  p :     0.037797
      px      :     0.007119
      py      :     0.023269

 20 H s       :     0.793454  s :     0.793454
      pz      :     0.037737  p :     0.079192
      px      :     0.022876
      py      :     0.018579

 21 O s       :     3.554443  s :     3.554443
      pz      :     1.423243  p :     4.611713
      px      :     1.601782
      py      :     1.586688
      dz2     :     0.007983  d :     0.058021
      dxz     :     0.008554
      dyz     :     0.012721
      dx2y2   :     0.012054
      dxy     :     0.016709

 22 H s       :     0.878251  s :     0.878251
      pz      :     0.022710  p :     0.039445
      px      :     0.007348
      py      :     0.009387

 23 H s       :     0.793140  s :     0.793140
      pz      :     0.027178  p :     0.078908
      px      :     0.033432
      py      :     0.018298



                      *****************************
                      * MAYER POPULATION ANALYSIS *
                      *****************************

  NA   - Mulliken gross atomic population
  ZA   - Total nuclear charge
  QA   - Mulliken gross atomic charge
  VA   - Mayer's total valence
  BVA  - Mayer's bonded valence
  FA   - Mayer's free valence

  ATOM       NA         ZA         QA         VA         BVA        FA
  0 C      6.0827     6.0000    -0.0827     3.9088     3.9088     0.0000
  1 C      6.1958     6.0000    -0.1958     3.8741     3.8741    -0.0000
  2 H      0.7695     1.0000     0.2305     0.9240     0.9240    -0.0000
  3 H      0.7691     1.0000     0.2309     0.9238     0.9238    -0.0000
  4 N      7.5736     7.0000    -0.5736     2.8878     2.8878     0.0000
  5 C      6.1810     6.0000    -0.1810     3.8768     3.8768    -0.0000
  6 H      0.9146     1.0000     0.0854     0.9575     0.9575     0.0000
  7 H      0.9126     1.0000     0.0874     0.9583     0.9583    -0.0000
  8 C      6.1928     6.0000    -0.1928     3.8742     3.8742     0.0000
  9 H      0.8729     1.0000     0.1271     0.9640     0.9640    -0.0000
 10 H      0.9065     1.0000     0.0935     0.9561     0.9561    -0.0000
 11 C      6.0476     6.0000    -0.0476     3.8622     3.8622    -0.0000
 12 H      0.8830     1.0000     0.1170     0.9567     0.9567     0.0000
 13 H      0.9001     1.0000     0.0999     0.9572     0.9572    -0.0000
 14 C      5.5168     6.0000     0.4832     3.9593     3.9593    -0.0000
 15 H      0.6828     1.0000     0.3172     0.9182     0.9182     0.0000
 16 N      7.5499     7.0000    -0.5499     2.9148     2.9148    -0.0000
 17 O      8.4553     8.0000    -0.4553     2.0294     2.0294     0.0000
 18 H      0.8957     1.0000     0.1043     0.9512     0.9512     0.0000
 19 H      0.8930     1.0000     0.1070     0.9512     0.9512    -0.0000
 20 H      0.7549     1.0000     0.2451     0.9301     0.9301    -0.0000
 21 O      8.4186     8.0000    -0.4186     2.1170     2.1170     0.0000
 22 H      0.8757     1.0000     0.1243     0.9512     0.9512     0.0000
 23 H      0.7555     1.0000     0.2445     0.9212     0.9212    -0.0000

  Mayer bond orders larger than 0.100000
B(  0-C ,  1-C ) :   0.9834 B(  0-C ,  4-N ) :   1.0268 B(  0-C , 18-H ) :   0.9508 
B(  0-C , 19-H ) :   0.9503 B(  1-C ,  5-C ) :   0.9908 B(  1-C ,  6-H ) :   0.9485 
B(  1-C ,  7-H ) :   0.9487 B(  2-H ,  4-N ) :   0.9154 B(  3-H ,  4-N ) :   0.9153 
B(  5-C ,  8-C ) :   0.9977 B(  5-C ,  9-H ) :   0.9373 B(  5-C , 10-H ) :   0.9492 
B(  8-C , 11-C ) :   0.9720 B(  8-C , 12-H ) :   0.9422 B(  8-C , 13-H ) :   0.9432 
B( 11-C , 14-C ) :   0.8972 B( 11-C , 16-N ) :   1.0511 B( 11-C , 22-H ) :   0.9228 
B( 14-C , 17-O ) :   1.0801 B( 14-C , 21-O ) :   1.9319 B( 15-H , 17-O ) :   0.8516 
B( 16-N , 20-H ) :   0.9001 B( 16-N , 23-H ) :   0.9080 

-------
TIMINGS
-------

Total SCF time: 0 days 0 hours 0 min 7 sec 

Total time                  ....       7.663 sec
Sum of individual times     ....       7.123 sec  ( 93.0%)

SCF preparation             ....       0.030 sec  (  0.4%)
Fock matrix formation       ....       6.994 sec  ( 91.3%)
  Startup                   ....       0.001 sec  (  0.0% of F)
  Split-RI-J                ....       2.603 sec  ( 37.2% of F)
  XC integration            ....       4.846 sec  ( 69.3% of F)
    XC Preparation          ....       0.000 sec  (  0.0% of XC)
    Basis function eval.    ....       1.727 sec  ( 35.6% of XC)
    Density eval.           ....       1.048 sec  ( 21.6% of XC)
    XC-Functional eval.     ....       0.897 sec  ( 18.5% of XC)
    XC-Potential eval.      ....       1.043 sec  ( 21.5% of XC)
Diagonalization             ....       0.000 sec  (  0.0%)
Density matrix formation    ....       0.006 sec  (  0.1%)
Total Energy calculation    ....       0.001 sec  (  0.0%)
Population analysis         ....       0.004 sec  (  0.0%)
Orbital Transformation      ....       0.030 sec  (  0.4%)
Orbital Orthonormalization  ....       0.000 sec  (  0.0%)
DIIS solution               ....       0.039 sec  (  0.5%)
SOSCF solution              ....       0.020 sec  (  0.3%)
Finished LeanSCF after   7.7 sec

Maximum memory used throughout the entire LEANSCF-calculation: 22.7 MB



-------------------------------------------------------------------------------
                          DFT DISPERSION CORRECTION                            
-------------------------------------------------------------------------------
Active option DFTDOPT                   ...         2   
Final C6-coefficient scaling factor     ...     1.250
Final VDW-radii scaling factor          ...     1.100
Damping factor alpha                    ...    20.000
-------------------------   ----------------
Dispersion correction           -0.033194632
-------------------------   ----------------


-------------------------   --------------------
FINAL SINGLE POINT ENERGY      -496.713146437417
-------------------------   --------------------

------------------------------------------------------------------------------
                         ORCA SCF GRADIENT CALCULATION
------------------------------------------------------------------------------

Nuc. rep. gradient        (SHARK) ... done (  0.0 sec)
HCore & Overlap gradient  (SHARK) ... done (  0.2 sec)
Split-RIJ-J gradient      (SHARK) ... done (  0.7 sec)
XC gradient                       ... done (  2.9 sec)
Dispersion correction             ... done (  0.0 sec)

-------------------
DISPERSION GRADIENT
-------------------

   1   C   :   -0.000093453    0.000524643    0.001108481
   2   C   :   -0.000784224   -0.000497063   -0.001365538
   3   H   :   -0.000804904    0.000146455    0.000511845
   4   H   :   -0.000764059    0.000466636    0.000370895
   5   N   :   -0.000175529   -0.000242351   -0.000596060
   6   C   :    0.000564684    0.000482499    0.001309710
   7   H   :   -0.000058471   -0.000333305    0.000472868
   8   H   :    0.000022958    0.000590432    0.000067186
   9   C   :   -0.000112018   -0.000251431   -0.001234682
  10   H   :    0.000014662    0.000414865   -0.000483681
  11   H   :   -0.000188853   -0.000455332   -0.000066657
  12   C   :    0.000594657   -0.000163142    0.000846435
  13   H   :    0.000033161   -0.000411211    0.000506049
  14   H   :    0.000264553    0.000859972    0.000142558
  15   C   :    0.000276611    0.000229835   -0.000431984
  16   H   :    0.000111592   -0.000379157    0.000098288
  17   N   :    0.000709483    0.000414748   -0.000168658
  18   O   :    0.000771224   -0.000054860    0.000035853
  19   H   :   -0.000783976   -0.000552142    0.000080245
  20   H   :   -0.000622049    0.000594864   -0.000437248
  21   H   :    0.000096547   -0.001067397   -0.000455467
  22   O   :    0.000654059    0.000682274   -0.000064639
  23   H   :    0.000516680   -0.000153578   -0.000125829
  24   H   :   -0.000243335   -0.000846254   -0.000119971

Difference to translation invariance:
           :    0.0000000000    0.0000000000    0.0000000000

Difference to rotation invariance:
           :    0.0000000000   -0.0000000000   -0.0000000000

Norm of the Dispersion gradient    ...    0.0045948445
RMS gradient                       ...    0.0005415076
MAX gradient                       ...    0.0013655377

------------------
CARTESIAN GRADIENT
------------------

   1   C   :   -0.003110568   -0.002275020   -0.006100199
   2   C   :    0.001977174    0.002306985    0.008034918
   3   H   :   -0.001896063   -0.002954145   -0.002501055
   4   H   :   -0.001368915    0.000521633   -0.004082329
   5   N   :    0.014120519   -0.001709268    0.000723379
   6   C   :   -0.000149954   -0.001560580   -0.007769876
   7   H   :   -0.000798418   -0.006053829   -0.002871675
   8   H   :   -0.000041724    0.002229388   -0.006321018
   9   C   :    0.003148249    0.000121251    0.008511506
  10   H   :    0.001362898    0.005196161    0.002874530
  11   H   :    0.000111278   -0.002526412    0.007120699
  12   C   :   -0.002140695    0.000679733   -0.002509072
  13   H   :   -0.001573694   -0.005006430   -0.002470885
  14   H   :   -0.001277611    0.002245127   -0.006564144
  15   C   :    0.006030646   -0.000814470    0.006987116
  16   H   :   -0.002592167    0.005152404   -0.002791447
  17   N   :    0.009585985    0.003835227    0.005176674
  18   O   :    0.002309016   -0.028145226    0.008378095
  19   H   :   -0.000751458   -0.000925708    0.006343635
  20   H   :    0.000105500    0.005417707    0.003484958
  21   H   :   -0.003176890    0.001287127   -0.002626389
  22   O   :   -0.016913698    0.023816230   -0.014843830
  23   H   :    0.000685887   -0.002563977    0.003231376
  24   H   :   -0.003645298    0.001726092    0.000585034

Difference to translation invariance:
           :    0.0000000000    0.0000000000   -0.0000000000

Difference to rotation invariance:
           :   -0.0003668268    0.0007409939    0.0000364582

Norm of the Cartesian gradient     ...    0.0559305963
RMS gradient                       ...    0.0065914840
MAX gradient                       ...    0.0281452263

-------
TIMINGS
-------

Total SCF gradient time     ....        3.820 sec

Densities                   ....       0.000 sec  (  0.0%)
One electron gradient       ....       0.157 sec  (  4.1%)
RI-J Coulomb gradient       ....       0.721 sec  ( 18.9%)
XC gradient                 ....       2.942 sec  ( 77.0%)

Maximum memory used throughout the entire SCFGRAD-calculation: 28.8 MB
------------------------------------------------------------------------------
                         ORCA GEOMETRY RELAXATION STEP
------------------------------------------------------------------------------

Reading the OPT-File                    .... done
Getting information on internals        .... done
Copying old internal coords+grads       .... done
Making the new internal coordinates     .... (2022 redundants) done
Validating the new internal coordinates .... (2022 redundants) done
Calculating the B-matrix                .... done
Calculating the G,G- and P matrices     .... done
Transforming gradient to internals      .... done
Projecting the internal gradient        .... done
Number of atoms                         ....  24
Number of internal coordinates          .... 104
Current Energy                          ....  -496.713146437 Eh
Current gradient norm                   ....     0.055930596 Eh/bohr
Maximum allowed component of the step   ....  0.300
Current trust radius                    ....  0.300
Evaluating the initial hessian          ....  (Almloef) done
Projecting the Hessian                  .... done
Forming the augmented Hessian           .... done
Diagonalizing the augmented Hessian     .... done
Last element of RFO vector              ....  0.988438970
Lowest eigenvalues of augmented Hessian:
 -0.005903608  0.010580256  0.010729669  0.010925254  0.011461626
Length of the computed step             ....  0.153392644
The final length of the internal step   ....  0.153392644
Converting the step to Cartesian space:
 Initial RMS(Int)=    0.0150413863
Transforming coordinates:
 Iter   0:  RMS(Cart)=    0.0472683402 RMS(Int)=    0.0150645811
done
Storing new coordinates                 .... done

                                .--------------------.
          ----------------------|Geometry convergence|-------------------------
          Item                value                   Tolerance       Converged
          ---------------------------------------------------------------------
          RMS gradient        0.0053353491            0.0001000000      NO
          MAX gradient        0.0327253020            0.0003000000      NO
          RMS step            0.0150413863            0.0020000000      NO
          MAX step            0.0511357629            0.0040000000      NO
          -------------------------------------------------------------------------
          ........................................................
          Max(Bonds)      0.0173      Max(Angles)    1.58
          Max(Dihed)        2.93      Max(Improp)    0.00
          ---------------------------------------------------------------------

The optimization has not yet converged - more geometry cycles are needed


    ---------------------------------------------------------------------------
                         Redundant Internal Coordinates
                            (Angstroem and degrees)

        Definition                    Value    dE/dq     Step     New-Value
    ----------------------------------------------------------------------------
     1. B(C   1,C   0)                1.5355 -0.005712  0.0081    1.5436   
     2. B(N   4,H   2)                1.0151 -0.003732  0.0046    1.0197   
     3. B(N   4,C   0)                1.4516 -0.012747  0.0149    1.4665   
     4. B(N   4,H   3)                1.0150 -0.003778  0.0046    1.0197   
     5. B(C   5,C   1)                1.5252 -0.008951  0.0123    1.5374   
     6. B(H   6,C   1)                1.0943 -0.006519  0.0096    1.1039   
     7. B(H   7,C   1)                1.0939 -0.006580  0.0096    1.1035   
     8. B(C   8,C   5)                1.5260 -0.008361  0.0115    1.5375   
     9. B(H   9,C   5)                1.0902 -0.005821  0.0084    1.0987   
    10. B(H  10,C   5)                1.0917 -0.007425  0.0108    1.1025   
    11. B(C  11,C   8)                1.5379 -0.009654  0.0139    1.5517   
    12. B(H  12,C   8)                1.0913 -0.005510  0.0080    1.0994   
    13. B(H  13,C   8)                1.0927 -0.006901  0.0101    1.1028   
    14. B(C  14,C  11)                1.5238 -0.011090  0.0151    1.5389   
    15. B(N  16,C  11)                1.4485 -0.007568  0.0088    1.4572   
    16. B(O  17,H  15)                0.9710 -0.002894  0.0030    0.9740   
    17. B(O  17,C  14)                1.3374 -0.022363  0.0173    1.3547   
    18. B(H  18,C   0)                1.0935 -0.005876  0.0086    1.1021   
    19. B(H  19,C   0)                1.0933 -0.005870  0.0086    1.1019   
    20. B(H  20,N  16)                1.0160 -0.003315  0.0041    1.0201   
    21. B(O  21,C  14)                1.2030 -0.032725  0.0155    1.2185   
    22. B(H  22,C  11)                1.0956 -0.004051  0.0060    1.1016   
    23. B(H  23,N  16)                1.0144 -0.003394  0.0042    1.0186   
    24. A(C   1,C   0,H  19)          109.42  0.001505   -0.34    109.08   
    25. A(C   1,C   0,N   4)          114.82 -0.004600    0.96    115.78   
    26. A(N   4,C   0,H  18)          107.46  0.000031    0.24    107.70   
    27. A(C   1,C   0,H  18)          109.47  0.001936   -0.37    109.09   
    28. A(H  18,C   0,H  19)          107.92  0.001435   -0.83    107.09   
    29. A(N   4,C   0,H  19)          107.52 -0.000038    0.26    107.78   
    30. A(C   5,C   1,H   6)          109.55  0.000105    0.15    109.71   
    31. A(C   5,C   1,H   7)          109.50 -0.000596    0.01    109.50   
    32. A(C   0,C   1,H   6)          109.10  0.001812   -0.21    108.89   
    33. A(C   0,C   1,C   5)          111.88 -0.003926    0.75    112.63   
    34. A(H   6,C   1,H   7)          107.66  0.001340   -0.55    107.11   
    35. A(C   0,C   1,H   7)          109.06  0.001477   -0.20    108.85   
    36. A(C   0,N   4,H   3)          110.15  0.000718   -0.34    109.81   
    37. A(C   0,N   4,H   2)          110.17  0.000788   -0.35    109.82   
    38. A(H   2,N   4,H   3)          107.49  0.001454   -0.76    106.73   
    39. A(C   8,C   5,H  10)          109.23  0.000540   -0.22    109.02   
    40. A(C   1,C   5,H  10)          109.38  0.000676   -0.06    109.32   
    41. A(C   8,C   5,H   9)          108.65  0.000728    0.01    108.66   
    42. A(C   1,C   5,H   9)          109.89  0.000586    0.09    109.98   
    43. A(C   1,C   5,C   8)          111.79 -0.003507    0.71    112.50   
    44. A(H   9,C   5,H  10)          107.80  0.001139   -0.59    107.21   
    45. A(H  12,C   8,H  13)          108.37  0.001081   -0.71    107.66   
    46. A(C  11,C   8,H  12)          108.92  0.001636   -0.17    108.76   
    47. A(C  11,C   8,H  13)          108.60  0.001242   -0.32    108.29   
    48. A(C   5,C   8,H  13)          109.57  0.001214    0.00    109.57   
    49. A(C   5,C   8,H  12)          110.16  0.002484   -0.27    109.89   
    50. A(C   5,C   8,C  11)          111.16 -0.007471    1.41    112.56   
    51. A(C  14,C  11,N  16)          112.44 -0.000130    0.32    112.76   
    52. A(C   8,C  11,N  16)          110.11 -0.000544    0.38    110.49   
    53. A(C   8,C  11,C  14)          108.40 -0.001168    0.48    108.88   
[...]
      dz2     :     0.002713  d :     0.023108
      dxz     :     0.003672
      dyz     :     0.004854
      dx2y2   :     0.008407
      dxy     :     0.003462

 18 H s       :     0.884218  s :     0.884218
      pz      :     0.005283  p :     0.010650
      px      :     0.002137
      py      :     0.003231

 19 H s       :     0.881291  s :     0.881291
      pz      :     0.002427  p :     0.010653
      px      :     0.002335
      py      :     0.005891

 20 H s       :     0.729768  s :     0.729768
      pz      :     0.009931  p :     0.023663
      px      :     0.007782
      py      :     0.005950

 21 O s       :     3.870161  s :     3.870161
      pz      :     1.403613  p :     4.527339
      px      :     1.576851
      py      :     1.546874
      dz2     :     0.005752  d :     0.027308
      dxz     :     0.004024
      dyz     :     0.005731
      dx2y2   :     0.005444
      dxy     :     0.006356

 22 H s       :     0.863352  s :     0.863352
      pz      :     0.005781  p :     0.010883
      px      :     0.002448
      py      :     0.002654

 23 H s       :     0.733543  s :     0.733543
      pz      :     0.008650  p :     0.023621
      px      :     0.009221
      py      :     0.005751



                     *******************************
                     * LOEWDIN POPULATION ANALYSIS *
                     *******************************

----------------------
LOEWDIN ATOMIC CHARGES
----------------------
   0 C :   -0.073396
   1 C :   -0.145350
   2 H :    0.120491
   3 H :    0.120769
   4 N :   -0.274629
   5 C :   -0.125111
   6 H :    0.058816
   7 H :    0.060432
   8 C :   -0.117038
   9 H :    0.077886
  10 H :    0.064608
  11 C :   -0.049274
  12 H :    0.073515
  13 H :    0.068642
  14 C :    0.124615
  15 H :    0.183238
  16 N :   -0.250480
  17 O :   -0.159839
  18 H :    0.065529
  19 H :    0.066874
  20 H :    0.129495
  21 O :   -0.231731
  22 H :    0.082761
  23 H :    0.129180

-------------------------------
LOEWDIN REDUCED ORBITAL CHARGES
-------------------------------
  0 C s       :     2.900798  s :     2.900798
      pz      :     1.017871  p :     3.062903
      px      :     0.976643
      py      :     1.068389
      dz2     :     0.022079  d :     0.109695
      dxz     :     0.023771
      dyz     :     0.017204
      dx2y2   :     0.032271
      dxy     :     0.014371

  1 C s       :     2.920248  s :     2.920248
      pz      :     1.055096  p :     3.145365
      px      :     1.023360
      py      :     1.066909
      dz2     :     0.015087  d :     0.079737
      dxz     :     0.016663
      dyz     :     0.015117
      dx2y2   :     0.021805
      dxy     :     0.011065

  2 H s       :     0.802882  s :     0.802882
      pz      :     0.014761  p :     0.076627
      px      :     0.022587
      py      :     0.039279

  3 H s       :     0.802597  s :     0.802597
      pz      :     0.036178  p :     0.076634
      px      :     0.021433
      py      :     0.019023

  4 N s       :     3.226524  s :     3.226524
      pz      :     1.241169  p :     3.990992
      px      :     1.589263
      py      :     1.160560
      dz2     :     0.013227  d :     0.057112
      dxz     :     0.009203
      dyz     :     0.014033
      dx2y2   :     0.012001
      dxy     :     0.008648

  5 C s       :     2.904873  s :     2.904873
      pz      :     1.050889  p :     3.140574
      px      :     1.003736
      py      :     1.085949
      dz2     :     0.015037  d :     0.079664
      dxz     :     0.017265
      dyz     :     0.014578
      dx2y2   :     0.021795
      dxy     :     0.010988

  6 H s       :     0.903544  s :     0.903544
      pz      :     0.007632  p :     0.037641
      px      :     0.007838
      py      :     0.022170

  7 H s       :     0.901918  s :     0.901918
      pz      :     0.019937  p :     0.037650
      px      :     0.006738
      py      :     0.010976

  8 C s       :     2.912978  s :     2.912978
      pz      :     1.049268  p :     3.125196
      px      :     1.008884
      py      :     1.067045
      dz2     :     0.016046  d :     0.078864
      dxz     :     0.016888
      dyz     :     0.012690
      dx2y2   :     0.019740
      dxy     :     0.013500

  9 H s       :     0.882223  s :     0.882223
      pz      :     0.007628  p :     0.039891
      px      :     0.007515
      py      :     0.024748

 10 H s       :     0.897748  s :     0.897748
      pz      :     0.019951  p :     0.037644
      px      :     0.006476
      py      :     0.011217

 11 C s       :     2.891684  s :     2.891684
      pz      :     1.064343  p :     3.032381
      px      :     1.011561
      py      :     0.956477
      dz2     :     0.020675  d :     0.125209
      dxz     :     0.017521
      dyz     :     0.022524
      dx2y2   :     0.036343
      dxy     :     0.028146

 12 H s       :     0.887657  s :     0.887657
      pz      :     0.007244  p :     0.038827
      px      :     0.008127
      py      :     0.023456

 13 H s       :     0.893136  s :     0.893136
      pz      :     0.021088  p :     0.038222
      px      :     0.006672
      py      :     0.010462

 14 C s       :     2.874253  s :     2.874253
      pz      :     0.846943  p :     2.723823
      px      :     0.979107
      py      :     0.897773
      dz2     :     0.031205  d :     0.277309
      dxz     :     0.032968
      dyz     :     0.051907
      dx2y2   :     0.099798
      dxy     :     0.061431

 15 H s       :     0.702735  s :     0.702735
      pz      :     0.033642  p :     0.114028
      px      :     0.060423
      py      :     0.019962

 16 N s       :     3.220516  s :     3.220516
      pz      :     1.205085  p :     3.972729
      px      :     1.629845
      py      :     1.137800
      dz2     :     0.008254  d :     0.057234
      dxz     :     0.010904
      dyz     :     0.015598
      dx2y2   :     0.010472
      dxy     :     0.012007

 17 O s       :     3.497320  s :     3.497320
      pz      :     1.693713  p :     4.613931
      px      :     1.420278
      py      :     1.499940
      dz2     :     0.005411  d :     0.048588
      dxz     :     0.006737
      dyz     :     0.008101
      dx2y2   :     0.018641
      dxy     :     0.009698

 18 H s       :     0.897556  s :     0.897556
      pz      :     0.020313  p :     0.036915
      px      :     0.005646
      py      :     0.010956

 19 H s       :     0.896113  s :     0.896113
      pz      :     0.007380  p :     0.037014
      px      :     0.006815
      py      :     0.022819

 20 H s       :     0.792739  s :     0.792739
      pz      :     0.036004  p :     0.077766
      px      :     0.023291
      py      :     0.018470

 21 O s       :     3.569088  s :     3.569088
      pz      :     1.422154  p :     4.606992
      px      :     1.600554
      py      :     1.584284
      dz2     :     0.008204  d :     0.055651
      dxz     :     0.009451
      dyz     :     0.012756
      dx2y2   :     0.010464
      dxy     :     0.014775

 22 H s       :     0.878326  s :     0.878326
      pz      :     0.022436  p :     0.038913
      px      :     0.007019
      py      :     0.009458

 23 H s       :     0.793686  s :     0.793686
      pz      :     0.027652  p :     0.077134
      px      :     0.032549
      py      :     0.016933



                      *****************************
                      * MAYER POPULATION ANALYSIS *
                      *****************************

  NA   - Mulliken gross atomic population
  ZA   - Total nuclear charge
  QA   - Mulliken gross atomic charge
  VA   - Mayer's total valence
  BVA  - Mayer's bonded valence
  FA   - Mayer's free valence

  ATOM       NA         ZA         QA         VA         BVA        FA
  0 C      6.0863     6.0000    -0.0863     3.8998     3.8998    -0.0000
  1 C      6.1980     6.0000    -0.1980     3.8701     3.8701     0.0000
  2 H      0.7703     1.0000     0.2297     0.9228     0.9228     0.0000
  3 H      0.7698     1.0000     0.2302     0.9226     0.9226    -0.0000
  4 N      7.5697     7.0000    -0.5697     2.8838     2.8838     0.0000
  5 C      6.1837     6.0000    -0.1837     3.8748     3.8748    -0.0000
  6 H      0.9139     1.0000     0.0861     0.9574     0.9574     0.0000
  7 H      0.9113     1.0000     0.0887     0.9578     0.9578     0.0000
  8 C      6.1865     6.0000    -0.1865     3.8650     3.8650    -0.0000
  9 H      0.8715     1.0000     0.1285     0.9618     0.9618    -0.0000
 10 H      0.9065     1.0000     0.0935     0.9559     0.9559    -0.0000
 11 C      6.0500     6.0000    -0.0500     3.8566     3.8566     0.0000
 12 H      0.8852     1.0000     0.1148     0.9563     0.9563     0.0000
 13 H      0.8982     1.0000     0.1018     0.9570     0.9570    -0.0000
 14 C      5.5099     6.0000     0.4901     3.9245     3.9245     0.0000
 15 H      0.6810     1.0000     0.3190     0.9169     0.9169    -0.0000
 16 N      7.5490     7.0000    -0.5490     2.9041     2.9041     0.0000
 17 O      8.4627     8.0000    -0.4627     2.0262     2.0262    -0.0000
 18 H      0.8949     1.0000     0.1051     0.9513     0.9513     0.0000
 19 H      0.8919     1.0000     0.1081     0.9513     0.9513    -0.0000
 20 H      0.7534     1.0000     0.2466     0.9301     0.9301     0.0000
 21 O      8.4248     8.0000    -0.4248     2.1081     2.1081    -0.0000
 22 H      0.8742     1.0000     0.1258     0.9514     0.9514     0.0000
 23 H      0.7572     1.0000     0.2428     0.9188     0.9188    -0.0000

  Mayer bond orders larger than 0.100000
B(  0-C ,  1-C ) :   0.9796 B(  0-C ,  4-N ) :   1.0218 B(  0-C , 18-H ) :   0.9502 
B(  0-C , 19-H ) :   0.9497 B(  1-C ,  5-C ) :   0.9873 B(  1-C ,  6-H ) :   0.9472 
B(  1-C ,  7-H ) :   0.9473 B(  2-H ,  4-N ) :   0.9141 B(  3-H ,  4-N ) :   0.9139 
B(  5-C ,  8-C ) :   0.9953 B(  5-C ,  9-H ) :   0.9374 B(  5-C , 10-H ) :   0.9479 
B(  8-C , 11-C ) :   0.9663 B(  8-C , 12-H ) :   0.9415 B(  8-C , 13-H ) :   0.9425 
B( 11-C , 14-C ) :   0.8967 B( 11-C , 16-N ) :   1.0453 B( 11-C , 22-H ) :   0.9232 
B( 14-C , 17-O ) :   1.0664 B( 14-C , 21-O ) :   1.9080 B( 15-H , 17-O ) :   0.8523 
B( 16-N , 20-H ) :   0.8966 B( 16-N , 23-H ) :   0.9077 

-------
TIMINGS
-------

Total SCF time: 0 days 0 hours 0 min 4 sec 

Total time                  ....       4.110 sec
Sum of individual times     ....       3.605 sec  ( 87.7%)

SCF preparation             ....       0.032 sec  (  0.8%)
Fock matrix formation       ....       3.513 sec  ( 85.5%)
  Startup                   ....       0.001 sec  (  0.0% of F)
  Split-RI-J                ....       1.346 sec  ( 38.3% of F)
  XC integration            ....       2.594 sec  ( 73.9% of F)
    Basis function eval.    ....       0.969 sec  ( 37.4% of XC)
    Density eval.           ....       0.570 sec  ( 22.0% of XC)
    XC-Functional eval.     ....       0.513 sec  ( 19.8% of XC)
    XC-Potential eval.      ....       0.469 sec  ( 18.1% of XC)
Diagonalization             ....       0.000 sec  (  0.0%)
Density matrix formation    ....       0.003 sec  (  0.1%)
Total Energy calculation    ....       0.001 sec  (  0.0%)
Population analysis         ....       0.028 sec  (  0.7%)
Orbital Transformation      ....       0.004 sec  (  0.1%)
Orbital Orthonormalization  ....       0.000 sec  (  0.0%)
DIIS solution               ....       0.004 sec  (  0.1%)
SOSCF solution              ....       0.020 sec  (  0.5%)
Finished LeanSCF after   4.1 sec

Maximum memory used throughout the entire LEANSCF-calculation: 23.1 MB



-------------------------------------------------------------------------------
                          DFT DISPERSION CORRECTION                            
-------------------------------------------------------------------------------
Active option DFTDOPT                   ...         2   
Final C6-coefficient scaling factor     ...     1.250
Final VDW-radii scaling factor          ...     1.100
Damping factor alpha                    ...    20.000
-------------------------   ----------------
Dispersion correction           -0.032534340
-------------------------   ----------------


-------------------------   --------------------
FINAL SINGLE POINT ENERGY      -496.717252531644
-------------------------   --------------------

                                *** OPTIMIZATION RUN DONE ***


------------------------------------------------------------------------------
                              ORCA PROPERTY CALCULATIONS
------------------------------------------------------------------------------

GBWName                                 ... 0.gbw
Number of atoms                         ...     24
Number of basis functions               ...    210
Max core memory                         ...   4096 MB

Electric properties:
Dipole moment                           ... YES
Quadrupole moment                       ...  NO
Static polarizability (Dipole/Dipole)   ...  NO
Static polarizability (Dipole/Quad.)    ...  NO
Static polarizability (Quad./Quad.)     ...  NO
Static polarizability (Velocity)        ...  NO
Static hyperpolarizability              ...  NO

Atomic electric properties:
Dipole moment                           ...  NO
Quadrupole moment                       ...  NO
Static polarizability                   ...  NO

Choice of electric origin               ... Center of mass
Position of electric origin             ...   -20.023501    11.097907     1.045690

General magnetic properties:
Magnetizability                         ...  NO

EPR properties:
g-Tensor (aka g-matrix)                 ...  NO
Zero-Field splitting spin-orbit         ...  NO
Zero-field splitting spin-spin          ...  NO
Hyperfine couplings                     ...  NO (   0 nuclei)
Quadrupole couplings                    ...  NO (   0 nuclei)
Contact density                         ...  NO (   0 nuclei)

NMR properties:
Chemical shifts                         ...  NO (   0 nuclei)
Spin-rotation constants                 ...  NO (   0 nuclei)
Spin-spin couplings                     ...  NO (   0 nuclei,    0 pairs)

Choice of magnetic origin               ... GIAO
Position of magnetic origin             ...     0.000000     0.000000     0.000000

Properties with geometric perturbations:
SCF Hessian                             ...  NO
IR spectrum                             ...  NO
VCD spectrum                            ...  NO
X-ray spectroscopy properties:
SCF XES/XAS/RIXS spectra                ...  NO

SCF SOC stabilization energy            ...  NO
Diagonal Born-Oppenheimer correction    ...  NO

-------------
DIPOLE MOMENT
-------------

Method             : SCF
Type of density    : Electron Density
Multiplicity       :   1
Irrep              :   0
Energy             :  -496.6847181915992451 Eh
Basis              : AO
                                X                 Y                 Z
Electronic contribution:     14.576682642      -1.816798551      -0.768274600
Nuclear contribution   :    -13.901163858       2.283502868       0.918486506
                        -----------------------------------------
Total Dipole Moment    :      0.675518784       0.466704318       0.150211906
                        -----------------------------------------
Magnitude (a.u.)       :      0.834686866
Magnitude (Debye)      :      2.121605408



--------------------
Rotational spectrum 
--------------------
 
Rotational constants in cm-1:             0.108658             0.014014             0.013189 
Rotational constants in MHz :          3257.487278           420.143329           395.409197 

Dipole components along the rotational axes: 
x,y,z [a.u.] :    -0.546285     0.629908     0.038608 
x,y,z [Debye]:    -1.388547     1.601098     0.098134 

 

Dipole moment calculation done in   0.0 sec 

Maximum memory used throughout the entire PROP-calculation: 12.9 MB

--------------------------------
SUGGESTED CITATIONS FOR THIS RUN
--------------------------------

Below you find a list of papers that are relevant to this ORCA run
We neither can nor want to force you to cite these papers, but we appreciate if you do
You receive ORCA, which is the product of decades of hard work by many enthusiastic individuals, for free
The only thing we kindly ask in return is that you cite our papers,
We deeply appreciate it, if you show your appreciation for ORCA by not just citing the generic ORCA reference.

Please note that relegating all ORCA citations to the supporting information does *not* help us.
SI sections are not indexed - citations you put there will not count into any citation statistics
But we need these citations in order to attract the funding resources that allow us to do what we are doing

Therefore, if you are a happy ORCA user, please consider citing a few of the papers listed below in the main body of your paper

In addition to the list printed below, the program has created the file 0.bibtex that contains the list in bibtex format
You can import this file easily into all common literature databanks and citation aid programs


List of essential papers. We consider these as the minimum necessary citations

  1. Neese, F.
     Software update: the ORCA program system, version 6.0
     WIRES Comput. Molec. Sci. 2025 15(1), e70019
     doi.org/10.1002/wcms.7019

List of papers to cite with high priority. The work reported in these papers was absolutely
necessary for this run to complete.
Our perspective: the developers of density functionals and basis sets usually get cited in chemistry papers
Good! But without the algorithms to do something with them, the functionals or basis sets would not do anything.
Hence, in our opinion, the algorithm design and method developments papers are equally worthy of getting cited

  1. Neese, F.
     An improvement of the resolution of the identity approximation for the formation of the Coulomb matrix
     J. Comp. Chem. 2003 24(14), 1740-1747
     doi.org/10.1002/jcc.10318
  2. Grimme, S.
     Semiempirical GGA-type density functional constructed with a long-range dispersion correction
     J.Comput.Chem. 2006 27(15), 1787-1799
     doi.org/10.1002/jcc.20495
  3. Neese, F.
     The SHARK Integral Generation and Digestion System
     J. Comp. Chem. 2022 44(3), 381
     doi.org/10.1002/jcc.26942

List of suggested additional citations. These are papers that are important in the 'surrounding' of 
of this run, or papers that preceded the highly important papers. If you like your results we are grateful for a citation.

  1. Neese, F.
     The ORCA program system
     WIRES Comput. Molec. Sci. 2012 2(1), 73-78
     doi.org/10.1002/wcms.81
  2. Neese, F.
     Software update: the ORCA program system, version 4.0
     WIRES Comput. Molec. Sci. 2018 8(1), 1-6
     doi.org/10.1002/wcms.1327
  3. Neese, F.; Wennmohs, F.; Becker, U.; Riplinger, C.
     The ORCA quantum chemistry program package
     J. Chem. Phys. 2020 152(22), 224108
     doi.org/10.1063/5.0004608
  4. Neese, F.
     Software update: The ORCA program system—Version 5.0
     WIRES Comput. Molec. Sci. 2022 12(1), e1606
     doi.org/10.1002/wcms.1606

List of optional additional citations

  1. Neese, F.
     Approximate second-order SCF convergence for spin unrestricted wavefunctions
     Chem. Phys. Lett. 2000 325(1-3), 93-98
     doi.org/10.1016/s0009-2614(00)00662-x

Timings for individual modules:

Sum of individual times          ...       93.559 sec (=   1.559 min)
Startup calculation              ...        5.144 sec (=   0.086 min)   5.5 %
SCF iterations                   ...       54.053 sec (=   0.901 min)  57.8 %
Property calculations            ...        0.047 sec (=   0.001 min)   0.1 %
SCF Gradient evaluation          ...       34.295 sec (=   0.572 min)  36.7 %
Geometry relaxation              ...        0.019 sec (=   0.000 min)   0.0 %
                             ****ORCA TERMINATED NORMALLY****
TOTAL RUN TIME: 0 days 0 hours 1 minutes 33 seconds 797 msec
