
                                 *****************
                                 * O   R   C   A *
                                 *****************

                                            #,                                       
                                            ###                                      
                                            ####                                     
                                            #####                                    
                                            ######                                   
                                           ########,                                 
                                     ,,################,,,,,                         
                               ,,#################################,,                 
                          ,,##########################################,,             
                       ,#########################################, ''#####,          
                    ,#############################################,,   '####,        
                  ,##################################################,,,,####,       
                ,###########''''           ''''###############################       
              ,#####''   ,,,,##########,,,,          '''####'''          '####       
            ,##' ,,,,###########################,,,                        '##       
           ' ,,###''''                  '''############,,,                           
         ,,##''                                '''############,,,,        ,,,,,,###''
      ,#''                                            '''#######################'''  
     '                                                          ''''####''''         
             ,#######,   #######,   ,#######,      ##                                
            ,#'     '#,  ##    ##  ,#'     '#,    #''#        ,####,    ,#,          
            ##       ##  ##   ,#'  ##            #'  '#       #'       ,# #          
            ##       ##  #######   ##           ,######,      #####,      #          
            '#,     ,#'  ##    ##  '#,     ,#' ,#      #,     #,   #      #          
             '#######'   ##     ##  '#######'  #'      '#     '####' #    #          



                #########################################################
                #                        -***-                          #
                #          Department of theory and spectroscopy        #
                #                                                       #
                #                      Frank Neese                      #
                #                                                       #
                #     Directorship, Architecture, Infrastructure        #
                #                    SHARK, DRIVERS                     #
                #        Core code/Algorithms in most modules           #
                #                                                       #
                #        Max Planck Institute fuer Kohlenforschung      #
                #                Kaiser Wilhelm Platz 1                 #
                #                 D-45470 Muelheim/Ruhr                 #
                #                      Germany                          #
                #                                                       #
                #                  All rights reserved                  #
                #                        -***-                          #
                #########################################################


                         Program Version 6.1.0  -  RELEASE   -
                                (GIT: $679e74b$)
                          ($2025-06-10 18:02:51 +0200$)


 With contributions from (in alphabetic order):
[Max-Planck-Institut fuer Kohlenforschung]                               
  Daniel Aravena         : Magnetic Suceptibility                        
  Michael Atanasov       : Ab Initio Ligand Field Theory (pilot matlab implementation)
  Alexander A. Auer      : GIAO ZORA, VPT2 properties, NMR spectrum      
  Ute Becker             : All parallelization in ORCA, NUMFREQ, NUMCALC 
  Giovanni Bistoni       : ED, misc. LED, open-shell LED, HFLD           
  Dmytro Bykov           : pre 5.0 version of the SCF Hessian            
  Marcos Casanova-Páez   : Triplet and SCS-CIS(D). UHF-(DLPNO)-IP/EA/STEOM-CCSD. UHF-CVS-IP/STEOM-CCSD   
  Vijay G. Chilkuri      : MRCI spin determinant printing, contributions to CSF-ICE 
  Pauline Colinet        : FMM embedding                                 
  Dipayan Datta          : RHF DLPNO-CCSD density                        
  Achintya Kumar Dutta   : EOM-CC, STEOM-CC                              
  Nicolas Foglia         : Exact transition moments, OPA infrastructure, MCD improvements    
  Dmitry Ganyushin       : Spin-Orbit,Spin-Spin,Magnetic field MRCI      
  Miquel Garcia-Rates    : C-PCM and meta-GGA Hessian, CCSD/C-PCM, Gaussian charge scheme 
  Tiago L. C. Gouveia    : GS-ROHF, GS-ROCIS                             
  Yang Guo               : DLPNO-NEVPT2, F12-NEVPT2, CIM, IAO-localization        
  Andreas Hansen         : Spin unrestricted coupled pair/coupled cluster methods 
  Ingolf Harden          : AUTO-CI MPn and infrastructure                
  Benjamin Helmich-Paris : MC-RPA, TRAH-(SCF,CASSCF), AVAS, COSX integrals, SCF dyn. polar., MC-PDFT, srDFT 
  Lee Huntington         : MR-EOM, pCC                                   
  Robert Izsak           : Overlap fitted RIJCOSX, COSX-SCS-MP3, EOM     
  Riya Kayal             : Wick's Theorem for AUTO-CI, AUTO-CI UHF-CCSDT 
  Emily Kempfer          : AUTO-CI RHF CISDT and CCSDT, approximate NEVPT4
  Christian Kollmar      : KDIIS, OOCD, Brueckner-CCSD(T), CCSD density, CASPT2, CASPT2-K, improved NEVPT2 
  Axel Koslowski         : Symmetry handling                             
  Simone Kossmann        : meta-GGA functionals, TD-DFT gradient, OOMP2, (MP2 Hessian; deprecated post 5.0) 
  Lucas Lang             : DCDCAS, Hyperfine gauge corrections, ICE-SOC+SSC
  Marvin Lechner         : AUTO-CI (C++ implementation), FIC-MRCC        
  Spencer Leger          : CASSCF response                               
  Dagmar Lenk            : GEPOL surface, SMD, ORCA-2-JSON               
  Dimitrios Liakos       : Extrapolation schemes; Compound Job, Property file
  Dimitrios Manganas     : Further ROCIS development; embedding schemes. LFT, Crystal Embedding 
  Dimitrios Pantazis     : SARC Basis sets                               
  Anastasios Papadopoulos: AUTO-CI, single reference methods and gradients 
  Taras Petrenko         : pre 6.0 DFT Hessian and TD-DFT gradient,  ECA, NRVS 
  Petra Pikulova         : Analytic Raman intensities                    
  Peter Pinski           : DLPNO-MP2, DLPNO-MP2 Gradient                 
  Shashank Vittal Rao    : ES-AILFT, MagRelax                            
  Christoph Reimann      : Effective Core Potentials                     
  Marius Retegan         : Local ZFS, SOC                                
  Christoph Riplinger    : Optimizer, TS searches, QM/MM, DLPNO-CCSD(T), (RO)-DLPNO pert. Triples 
  Michael Roemelt        : Original ROCIS implementation, recursive CI coupling coefficients
  Masaaki Saitow         : Open-shell DLPNO-CCSD energy and density      
  Barbara Sandhoefer     : DKH picture change effects                    
  Yorick L. A. Schmerwitz: GMF and freeze-and-release deltaSCF, NEB S-IDPP initial path                    
  Kantharuban Sivalingam : CASSCF convergence/infrastructure, NEVPT2, NEVPT3, NEVPT4(SD), FIC-MRCI and CEPA variants
  Bernardo de Souza      : ESD, SOC TD-DFT                               
  Georgi L. Stoychev     : AutoAux, RI-MP2 NMR, DLPNO-MP2 response, X2C  
  Van Anh Tran           : RI-MP2 g-tensors                              
  Willem Van den Heuvel  : Paramagnetic NMR                              
  Zikuan Wang            : NOTCH, Electric field optimization            
  Frank Wennmohs         : Technical directorship and infrastructure     
  Hang Xu                : AUTO-CI-Response properties                   
                                                                         
[FACCTs GmbH]                                                            
  Markus Bursch, Nicolas Foglia, Miquel Garcia-Rates, Ingolf Harden, Hagen Neugebauer, Anastasios Papadopoulos, 
  Christoph Riplinger, Bernardo de Souza, Georgi L. Stoychev                                                    
                                                                 
  APM, various basis sets, CI-OPT, improved COSX, DLPNO-Multilevel,           
  DOCKER, DRACO, updates on ESD, Fragmentator, GOAT, IRC, LR-CPCM, L-BFGS, MBIS, meta-GGA TD-DFT gradient, ML-optimized integration grids, 
  MM, NACMEs, nearIR, NEB, NEB-TS, NL-DFT gradient (VV10), 2- and 3-layer-ONIOM, interface openCOSMO-RS, QMMM,   
  Crystal-QMMM, RESP, rigid body optimization, SF, symmetry and pop. for TD-DFT, various functionals, SOLVATOR                                   
                                                                         
[Other institutions]                                                     
  V. Asgeirsson          : NEB                                           
  Christoph Bannwarth    : sTDA-DFT, sTD-DFT, PBEh-3c, B97-3c, D3        
  Giovanni Bistoni       : ETS/NOCV, ADLD/ADEX, COVALED                  
  Martin Brehm           : Molecular dynamics                            
  Ronald Cardenas        : ETS/NOCV                                      
  Martina Colucci        : COVALED                                       
  Sebastian Ehlert       : rSCAN, r2SCAN, r2SCAN-3c, D4, dhf basis sets  
  Marvin Friede          : D4 for Fr, Ra, Ac-Lr                          
  Lars Goerigk           : TD-DFT with DH, B97 family of functionals     
  Stefan Grimme          : VdW corrections, initial TS optimization, DFT functionals, gCP, sTDA/sTD-DF 
  Waldemar Hujo          : DFT-NL                                        
  H. Jonsson             : NEB                                           
  Holger Kruse           : gCP                                           
  Marcel Mueller         : wB97X-3c, vDZP basis set                      
  Hagen Neugebauer       : wr2SCAN, Native XTB                           
  Gianluca Regni         : ADLD/ADEX                                     
  Tobias Risthaus        : pre 6.0 range-separated hybrid DFT and stability analysis
  Lukas Wittmann         : regularized MP2, r2SCAN double-hybrids, wr2SCAN        
                                                                         
We gratefully acknowledge several colleagues who have allowed us to      
interface, adapt or use parts of their codes:                            
  Ed Valeev, F. Pavosevic, A. Kumar             : LibInt (2-el integral package), F12 methods 
  Garnet Chan, S. Sharma, J. Yang, R. Olivares  : DMRG                   
  Ulf Ekstrom                                   : XCFun DFT Library      
  Mihaly Kallay                                 : mrcc  (arbitrary order and MRCC methods)
  Frank Weinhold                                : gennbo (NPA and NBO analysis)           
  Simon Mueller                                 : openCOSMO-RS                            
  Christopher J. Cramer and Donald G. Truhlar   : smd solvation model                     
  S Lehtola, MJT Oliveira, MAL Marques          : LibXC Library                           
  Liviu Ungur et al                             : ANISO software                          


 Your calculation uses the libint2 library for the computation of 2-el integrals
 For citations please refer to: http://libint.valeyev.net

 Your ORCA version has been built with support for libXC version: 7.0.0
 For citations please refer to: https://libxc.gitlab.io

 This ORCA versions uses:
   CBLAS   interface :  Fast vector & matrix operations
   LAPACKE interface :  Fast linear algebra routines
   SCALAPACK package :  Parallel linear algebra routines
   Shared memory     :  Shared parallel matrices
   BLAS/LAPACK       :  OpenBLAS 0.3.29  USE64BITINT DYNAMIC_ARCH NO_AFFINITY Haswell SINGLE_THREADED
        Core in use  :  Haswell
   Copyright (c) 2011-2014, The OpenBLAS Project


  ***********************************
  * Starting time: Sun Aug 10 17:44:45 2025
  * Host name:     chemlab03
  * Process ID:    1899366
  * Working dir.:  /home/test/Desktop/Aishani MM/attachments
  ***********************************



***************************************
The coordinates will be read from file: r.xyz
***************************************


Your calculation utilizes the semiempirical GFN2-xTB method
Please cite in your paper:
Bannwarth, C.; Ehlert S.; Grimme, S. J. Chem. Theory Comput. 2019, 15, 1652.
   

================================================================================

================================================================================
                                        WARNINGS
                       Please study these warnings very carefully!
================================================================================


================================================================================
 STARTING AUTOMATIC FRAGMENTATION: 
================================================================================

WARNING: Geometry Optimization
  ===> : Switching off AutoStart
         For restart on a previous wavefunction, please use MOREAD

WARNING: Found dipole moment calculation with XTB calculation
  ===> : Switching off dipole moment calculation


================================================================================
                                       INPUT FILE
================================================================================
NAME = r.inp
|  1> ! xtb goat
|  2> 
|  3> * xyzfile 0 1 r.xyz
|  4> 
|  5>                          ****END OF INPUT****
================================================================================

                       *****************************
                       * Geometry Optimization Run *
                       *****************************


                       *********************************
                       *              GOAT             *
                       * Global Optimization Algorithm *
                       *********************************

Geometry optimization settings:
Update method            Update   .... BFGS
Choice of coordinates    CoordSys .... (2022) Redundant Internals
Initial Hessian          InHess   .... Almloef's Model
Max. no of cycles        MaxIter  .... 78

Convergence Tolerances:
Energy Change            TolE     ....  5.0000e-06 Eh
Max. Gradient            TolMAXG  ....  3.0000e-04 Eh/bohr
RMS Gradient             TolRMSG  ....  1.0000e-04 Eh/bohr
Max. Displacement        TolMAXD  ....  4.0000e-03 bohr
RMS Displacement         TolRMSD  ....  2.0000e-03 bohr
Strict Convergence                .... True

------------------------------------------------------------------------------
                        ORCA OPTIMIZATION COORDINATE SETUP
------------------------------------------------------------------------------

The optimization will be done in redundant internal coordinates (2022)
Making redundant internal coordinates   ...  (2022 redundants) done
Evaluating the initial hessian          ...  (Almloef) done
Evaluating the coordinates              ...  done
Calculating the B-matrix                .... done
Calculating the G-matrix                .... done
The number of degrees of freedom        ....  112

    -----------------------------------------------------------------
                    Redundant Internal Coordinates


    -----------------------------------------------------------------
         Definition                    Initial Value    Approx d2E/dq
    -----------------------------------------------------------------
      1. B(C   1,N   0)                  1.4836         0.396831   
      2. B(H   2,N   0)                  1.0218         0.414351   
      3. B(H   3,N   0)                  1.0250         0.409568   
      4. B(C   4,C   1)                  1.5376         0.363240   
      5. B(C   6,C   1)                  1.5343         0.367728   
      6. B(O   8,H   3)                  2.2370         0.010000   
      7. B(O   8,C   4)                  1.3534         0.640068   
      8. B(H   9,C   1)                  1.0963         0.351893   
      9. B(C  10,C   6)                  1.5346         0.367265   
     10. B(H  11,C   6)                  1.0967         0.351364   
     11. B(H  12,C   6)                  1.0995         0.347797   
     12. B(C  13,C  10)                  1.5276         0.376881   
     13. B(H  14,C  10)                  1.0947         0.353959   
     14. B(H  15,C  10)                  1.0999         0.347224   
     15. B(N  16,C  13)                  1.4614         0.430547   
     16. B(H  17,C  13)                  1.0969         0.351082   
     17. B(H  18,C  13)                  1.0957         0.352698   
     18. B(C  19,N  16)                  1.3495         0.649321   
     19. B(H  20,N  16)                  1.0147         0.425353   
     20. B(N  21,C  19)                  1.2812         0.834612   
     21. B(N  22,C  19)                  1.3451         0.660053   
     22. B(N  22,H   7)                  1.0160         0.423235   
     23. B(N  22,H   5)                  1.0099         0.432859   
     24. B(H  23,N  21)                  1.0215         0.414755   
     25. B(H  24,O   8)                  0.9813         0.480856   
     26. B(O  25,C   4)                  1.2196         1.046359   
     27. A(C   1,N   0,H   3)          106.5908         0.329750   
     28. A(H   2,N   0,H   3)          103.6174         0.298542   
     29. A(C   1,N   0,H   2)          108.6646         0.330384   
     30. A(N   0,C   1,C   6)          110.6720         0.363856   
     31. A(N   0,C   1,C   4)          110.5820         0.363093   
     32. A(C   6,C   1,H   9)          110.1548         0.322260   
     33. A(N   0,C   1,H   9)          108.3979         0.324363   
     34. A(C   4,C   1,H   9)          107.1274         0.321612   
     35. A(C   4,C   1,C   6)          109.8321         0.360643   
     36. A(C   1,C   4,O   8)          113.4633         0.394415   
     37. A(C   1,C   4,O  25)          126.7885         0.430352   
     38. A(O   8,C   4,O  25)          119.7300         0.473858   
     39. A(C  10,C   6,H  12)          109.0583         0.321576   
     40. A(C   1,C   6,H  12)          109.0079         0.321642   
     41. A(C  10,C   6,H  11)          109.2975         0.322114   
     42. A(C   1,C   6,H  11)          109.3574         0.322180   
     43. A(C   1,C   6,C  10)          113.6571         0.361322   
     44. A(H  11,C   6,H  12)          106.1927         0.288147   
     45. A(C   4,O   8,H  24)          103.6768         0.367184   
     46. A(H  14,C  10,H  15)          107.1212         0.288405   
     47. A(C  13,C  10,H  15)          107.3573         0.322853   
     48. A(C   6,C  10,H  15)          109.8384         0.321489   
     49. A(C  13,C  10,H  14)          110.5238         0.323872   
     50. A(C   6,C  10,H  14)          109.4784         0.322502   
     51. A(C   6,C  10,C  13)          112.3664         0.362841   
     52. A(H  17,C  13,H  18)          106.5674         0.288743   
     53. A(N  16,C  13,H  18)          111.6896         0.328872   
     54. A(C  10,C  13,H  18)          110.3634         0.323683   
     55. A(N  16,C  13,H  17)          107.8287         0.328622   
     56. A(C  10,C  13,H  17)          108.4603         0.323439   
     57. A(C  10,C  13,N  16)          111.7110         0.370538   
     58. A(C  19,N  16,H  20)          110.9345         0.360448   
     59. A(C  13,N  16,H  20)          109.2068         0.336343   
     60. A(C  13,N  16,C  19)          119.8983         0.404807   
     61. A(N  21,C  19,N  22)          119.7494         0.457212   
     62. A(N  16,C  19,N  22)          113.5035         0.436873   
     63. A(N  16,C  19,N  21)          126.7351         0.455848   
     64. A(C  19,N  21,H  23)          107.9651         0.374682   
     65. A(H   7,N  22,C  19)          108.6201         0.361150   
     66. A(H   5,N  22,C  19)          113.7672         0.362538   
     67. A(H   5,N  22,H   7)          109.5008         0.302203   
     68. D(C   4,C   1,N   0,H   3)    -48.6536         0.013450   
     69. D(C   6,C   1,N   0,H   2)    -59.4962         0.013450   
     70. D(C   6,C   1,N   0,H   3)   -170.5928         0.013450   
     71. D(H   9,C   1,N   0,H   2)    179.5997         0.013450   
     72. D(C   4,C   1,N   0,H   2)     62.4431         0.013450   
     73. D(O  25,C   4,C   1,C   6)    -38.4699         0.010000   
     74. D(O   8,C   4,C   1,C   6)    143.0992         0.010000   
     75. D(O  25,C   4,C   1,N   0)   -160.9015         0.010000   
     76. D(O   8,C   4,C   1,H   9)    -97.2694         0.010000   
     77. D(O   8,C   4,C   1,N   0)     20.6675         0.010000   
     78. D(H  11,C   6,C   1,N   0)     63.7113         0.010818   
     79. D(H  11,C   6,C   1,C   4)    -58.6670         0.010818   
     80. D(C  10,C   6,C   1,C   4)    178.8997         0.010818   
     81. D(C  10,C   6,C   1,H   9)     61.1339         0.010818   
     82. D(C  10,C   6,C   1,N   0)    -58.7220         0.010818   
     83. D(H  11,C   6,C   1,H   9)   -176.4328         0.010818   
     84. D(H  24,O   8,C   4,O  25)      0.7106         0.033346   
     85. D(H  24,O   8,C   4,C   1)    179.2636         0.033346   
     86. D(H  14,C  10,C   6,H  12)     56.9630         0.010793   
     87. D(H  14,C  10,C   6,H  11)    172.6572         0.010793   
     88. D(H  14,C  10,C   6,C   1)    -64.8764         0.010793   
     89. D(C  13,C  10,C   6,H  12)    -66.2444         0.010793   
     90. D(C  13,C  10,C   6,H  11)     49.4498         0.010793   
     91. D(C  13,C  10,C   6,C   1)    171.9162         0.010793   
     92. D(H  17,C  13,C  10,H  15)    -45.7887         0.011330   
     93. D(H  17,C  13,C  10,H  14)     70.7213         0.011330   
     94. D(H  17,C  13,C  10,C   6)   -166.6592         0.011330   
     95. D(N  16,C  13,C  10,H  15)   -164.4967         0.011330   
     96. D(N  16,C  13,C  10,H  14)    -47.9867         0.011330   
     97. D(N  16,C  13,C  10,C   6)     74.6328         0.011330   
     98. D(C  19,N  16,C  13,C  10)   -124.4730         0.015804   
     99. D(H  20,N  16,C  13,H  17)    -13.1063         0.015804   
    100. D(H  20,N  16,C  13,C  10)    105.9767         0.015804   
    101. D(C  19,N  16,C  13,H  18)     -0.3170         0.015804   
    102. D(C  19,N  16,C  13,H  17)    116.4440         0.015804   
    103. D(N  22,C  19,N  16,H  20)      3.7936         0.034402   
    104. D(N  22,C  19,N  16,C  13)   -124.9817         0.034402   
    105. D(N  21,C  19,N  16,H  20)   -177.4844         0.034402   
    106. D(N  21,C  19,N  16,C  13)     53.7403         0.034402   
    107. D(H  23,N  21,C  19,N  22)   -177.6658         0.054247   
    108. D(H  23,N  21,C  19,N  16)      3.6841         0.054247   
    109. D(H   7,N  22,C  19,N  21)      4.6684         0.035652   
    110. D(H   7,N  22,C  19,N  16)   -176.5113         0.035652   
    111. D(H   5,N  22,C  19,N  21)    126.8954         0.035652   
    112. D(H   5,N  22,C  19,N  16)    -54.2843         0.035652   
    -----------------------------------------------------------------

Number of atoms                         .... 26
Number of degrees of freedom            .... 112


         *************************************************************
         *                GEOMETRY OPTIMIZATION CYCLE   1            *
         *************************************************************
---------------------------------
CARTESIAN COORDINATES (ANGSTROEM)
---------------------------------
  N    -1.208032    1.317397   -0.348025
  C    -0.092919    0.850569    0.511944
  H    -0.886447    1.338540   -1.317670
  H    -1.357988    2.305796   -0.121913
  C     1.089769    1.830785    0.442991
  H     1.920111   -5.709743    1.041422
  C     0.367093   -0.550747    0.089143
  H     2.984339   -5.573694   -0.218015
  O     0.740750    3.067298    0.017567
  H    -0.440316    0.836414    1.551624
  C    -0.743172   -1.608338    0.151766
  H     0.770676   -0.508857   -0.929721
  H     1.198981   -0.864836    0.735773
  C    -0.311898   -2.940722   -0.458415
  H    -1.057807   -1.746160    1.191160
  H    -1.622705   -1.259868   -0.409302
  N     0.604073   -3.666029    0.419371
  H    -1.204165   -3.562730   -0.600410
  H     0.120186   -2.782600   -1.452779
  C     1.811342   -4.054753   -0.041712
  H     0.111599   -4.443561    0.846526
  N     2.697349   -3.310691   -0.591980
  N     2.039369   -5.373087    0.096780
  H     2.358368   -2.347320   -0.568731
  H     1.584898    3.567134    0.039688
  O     2.247361    1.601505    0.751085

----------------------------
CARTESIAN COORDINATES (A.U.)
----------------------------
  NO LB    ZA    FRAG    MASS        X           Y           Z
   0 N   7.0000    1    14.007   -2.282850    2.489520   -0.657671
   1 C   6.0000    1    12.011   -0.175591    1.607343    0.967433
   2 H   1.0000    1     1.008   -1.675143    2.529473   -2.490035
   3 H   1.0000    1     1.008   -2.566226    4.357322   -0.230383
   4 C   6.0000    1    12.011    2.059364    3.459682    0.837132
   5 H   1.0000    1     1.008    3.628484  -10.789850    1.968003
   6 C   6.0000    1    12.011    0.693706   -1.040761    0.168456
   7 H   1.0000    1     1.008    5.639583  -10.532755   -0.411989
   8 O   8.0000    1    15.999    1.399816    5.796353    0.033196
   9 H   1.0000    1     1.008   -0.832078    1.580593    2.932144
  10 C   6.0000    1    12.011   -1.404392   -3.039318    0.286796
  11 H   1.0000    1     1.008    1.456367   -0.961600   -1.756918
  12 H   1.0000    1     1.008    2.265745   -1.634302    1.390410
  13 C   6.0000    1    12.011   -0.589401   -5.557159   -0.866280
  14 H   1.0000    1     1.008   -1.998965   -3.299765    2.250966
  15 H   1.0000    1     1.008   -3.066468   -2.380806   -0.773468
  16 N   7.0000    1    14.007    1.141533   -6.927790    0.792496
  17 H   1.0000    1     1.008   -2.275543   -6.732584   -1.134610
  18 H   1.0000    1     1.008    0.227118   -5.258353   -2.745354
  19 C   6.0000    1    12.011    3.422941   -7.662373   -0.078824
  20 H   1.0000    1     1.008    0.210892   -8.397113    1.599703
  21 N   7.0000    1    14.007    5.097251   -6.256300   -1.118681
  22 N   7.0000    1    14.007    3.853849  -10.153662    0.182888
  23 H   1.0000    1     1.008    4.456670   -4.435791   -1.074747
  24 H   1.0000    1     1.008    2.995024    6.740906    0.074999
  25 O   8.0000    1    15.999    4.246897    3.026406    1.419344

      -----------------------------------------------------------      
     |                   =====================                   |     
     |                           x T B                           |     
     |                   =====================                   |     
     |                         S. Grimme                         |     
     |          Mulliken Center for Theoretical Chemistry        |     
     |                    University of Bonn                     |     
      -----------------------------------------------------------      

   * xtb version 6.7.1 (edcfbbe) compiled by 'albert@albert-system' on 2024-07-22

   xtb is free software: you can redistribute it and/or modify it under
   the terms of the GNU Lesser General Public License as published by
   the Free Software Foundation, either version 3 of the License, or
   (at your option) any later version.
   
   xtb is distributed in the hope that it will be useful,
   but WITHOUT ANY WARRANTY; without even the implied warranty of
   MERCHANTABILITY or FITNESS FOR A PARTICULAR PURPOSE.  See the
   GNU Lesser General Public License for more details.
   
   Cite this work as:
   * C. Bannwarth, E. Caldeweyher, S. Ehlert, A. Hansen, P. Pracht,
     J. Seibert, S. Spicher, S. Grimme, WIREs Comput. Mol. Sci., 2020, 11,
     e01493. DOI: 10.1002/wcms.1493
   
   for GFN2-xTB:
   * C. Bannwarth, S. Ehlert and S. Grimme., J. Chem. Theory Comput., 2019,
     15, 1652-1671. DOI: 10.1021/acs.jctc.8b01176
   for GFN1-xTB:
   * S. Grimme, C. Bannwarth, P. Shushkov, J. Chem. Theory Comput., 2017,
     13, 1989-2009. DOI: 10.1021/acs.jctc.7b00118
   for GFN0-xTB:
   * P. Pracht, E. Caldeweyher, S. Ehlert, S. Grimme, ChemRxiv, 2019, preprint.
     DOI: 10.26434/chemrxiv.8326202.v1
   for GFN-FF:
   * S. Spicher and S. Grimme, Angew. Chem. Int. Ed., 2020, 59, 15665-15673.
     DOI: 10.1002/anie.202004239
   
   for ALPB and GBSA implicit solvation:
   * S. Ehlert, M. Stahn, S. Spicher, S. Grimme, J. Chem. Theory Comput.,
     2021, 17, 4250-4261. DOI: 10.1021/acs.jctc.1c00471
   
   for ddCOSMO and CPCM-X implicit solvation:
   * M. Stahn, S. Ehlert, S. Grimme, J. Phys. Chem. A,
     2023, XX, XXXX-XXXX. DOI: 10.1021/acs.jpca.3c04382
   
   for DFT-D4:
   * E. Caldeweyher, C. Bannwarth and S. Grimme, J. Chem. Phys., 2017,
     147, 034112. DOI: 10.1063/1.4993215
   * E. Caldeweyher, S. Ehlert, A. Hansen, H. Neugebauer, S. Spicher,
     C. Bannwarth and S. Grimme, J. Chem. Phys., 2019, 150, 154122.
     DOI: 10.1063/1.5090222
   * E. Caldeweyher, J.-M. Mewes, S. Ehlert and S. Grimme, Phys. Chem. Chem. Phys.
     2020, 22, 8499-8512. DOI: 10.1039/D0CP00502A
   
   for sTDA-xTB:
   * S. Grimme and C. Bannwarth, J. Chem. Phys., 2016, 145, 054103.
     DOI: 10.1063/1.4959605
   
   in the mass-spec context:
   * V. Asgeirsson, C. Bauer and S. Grimme, Chem. Sci., 2017, 8, 4879.
     DOI: 10.1039/c7sc00601b
   * J. Koopman and S. Grimme, ACS Omega 2019, 4, 12, 15120-15133.
     DOI: 10.1021/acsomega.9b02011
   
   for metadynamics refer to:
   * S. Grimme, J. Chem. Theory Comput., 2019, 155, 2847-2862
     DOI: 10.1021/acs.jctc.9b00143
   
   for SPH calculations refer to:
   * S. Spicher and S. Grimme, J. Chem. Theory Comput., 2021, 17, 1701-1714
     DOI: 10.1021/acs.jctc.0c01306
   
   for ONIOM refer to:
   * C. Plett, A. Katbashev, S. Ehlert, S. Grimme, M. Bursch,
     Phys. Chem. Chem. Phys., 2023, 25, 17860-17868. DOI: 10.1039/D3CP02178E
   
   for DIPRO refer to:
   * J. Kohn, N. Gildemeister, S. Grimme, D. Fazzi, A. Hansen,
     J. Chem. Phys., 2023, just accepted.
   
   for PTB refer to:
   * S. Grimme, M. Mueller, A. Hansen, J. Chem. Phys., 2023, 158, 124111.
     DOI: 10.1063/5.0137838
   
   with help from (in alphabetical order)
   P. Atkinson, C. Bannwarth, F. Bohle, G. Brandenburg, E. Caldeweyher
   M. Checinski, S. Dohm, S. Ehlert, S. Ehrlich, I. Gerasimov, C. Hölzer
   A. Katbashev, J. Kohn, J. Koopman, C. Lavigne, S. Lehtola, F. März, M. Müller,
   F. Musil, H. Neugebauer, J. Pisarek, C. Plett, P. Pracht, F. Pultar,
   J. Seibert, P. Shushkov, S. Spicher, M. Stahn, M. Steiner, T. Strunk,
   J. Stückrath, T. Rose, and J. Unsleber
   
 * started run on 2025/08/10 at 17:44:45.295     
   ID    Z sym.   atoms
    1    7 N      1, 17, 22, 23
    2    6 C      2, 5, 7, 11, 14, 20
    3    1 H      3, 4, 6, 8, 10, 12, 13, 15, 16, 18, 19, 21, 24, 25
    4    8 O      9, 26

           -------------------------------------------------
          |                Calculation Setup                |
           -------------------------------------------------

          program call               : /home/test/orca/orca_6_1_0_linux_x86-64_shared_openmpi418/otool_xtb r_XTB.xyz --grad -c 0 -u 0 -P 1 --namespace r --input r_XTB.input.tmp --acc 0.200000
          calculation namespace      : r
          coordinate file            : r_XTB.xyz
          omp threads                :                     1


           -------------------------------------------------
          |                 G F N 2 - x T B                 |
           -------------------------------------------------

        Reference                      10.1021/acs.jctc.8b01176
      * Hamiltonian:
        H0-scaling (s, p, d)           1.850000    2.230000    2.230000
        zeta-weighting                 0.500000
      * Dispersion:
        s8                             2.700000
        a1                             0.520000
        a2                             5.000000
        s9                             5.000000
      * Repulsion:
        kExp                           1.500000    1.000000
        rExp                           1.000000
      * Coulomb:
        alpha                          2.000000
        third order                    shell-resolved
        anisotropic                    true
        a3                             3.000000
        a5                             4.000000
        cn-shift                       1.200000
        cn-exp                         4.000000
        max-rad                        5.000000


          ...................................................
          :                      SETUP                      :
          :.................................................:
          :  # basis functions                  62          :
          :  # atomic orbitals                  62          :
          :  # shells                           38          :
          :  # electrons                        70          :
          :  max. iterations                   250          :
          :  Hamiltonian                  GFN2-xTB          :
          :  restarted?                      false          :
          :  GBSA solvation                  false          :
          :  PC potential                    false          :
          :  electronic temp.          300.0000000     K    :
          :  accuracy                    0.2000000          :
          :  -> integral cutoff          0.3198970E+02      :
          :  -> integral neglect         0.2000000E-08      :
          :  -> SCF convergence          0.2000000E-06 Eh   :
          :  -> wf. convergence          0.2000000E-04 e    :
          :  Broyden damping             0.4000000          :
          :  net charge                          0          :
          :  unpaired electrons                  0          :
          ...................................................

 iter      E             dE          RMSdq      gap      omega  full diag
   1    -40.1457907 -0.401458E+02  0.386E+00    4.05       0.0  T
   2    -40.2123853 -0.665945E-01  0.209E+00    3.02       1.0  T
   3    -40.2157044 -0.331917E-02  0.110E+00    3.47       1.0  T
   4    -40.2192672 -0.356277E-02  0.203E-01    3.00       1.0  T
   5    -40.2197792 -0.511953E-03  0.815E-02    3.02       1.0  T
   6    -40.2197999 -0.207702E-04  0.327E-02    3.00       1.0  T
   7    -40.2198036 -0.365100E-05  0.136E-02    3.00       1.4  T
   8    -40.2198049 -0.137017E-05  0.421E-03    3.00       4.7  T
   9    -40.2198050 -0.945626E-07  0.177E-03    3.00      11.1  T
  10    -40.2198050 -0.115794E-07  0.767E-04    3.00      25.6  T
  11    -40.2198051 -0.245201E-08  0.218E-04    3.00      89.9  T
  12    -40.2198051 -0.137128E-09  0.972E-05    3.00     201.8  T
  13    -40.2198051 -0.238032E-10  0.297E-05    3.00     660.4  T

   *** convergence criteria satisfied after 13 iterations ***

         #    Occupation            Energy/Eh            Energy/eV
      -------------------------------------------------------------
         1        2.0000           -0.7554177             -20.5560
       ...           ...                  ...                  ...
        29        2.0000           -0.4473850             -12.1740
        30        2.0000           -0.4437374             -12.0747
        31        2.0000           -0.4339803             -11.8092
        32        2.0000           -0.3943285             -10.7302
        33        2.0000           -0.3835710             -10.4375
        34        2.0000           -0.3671995              -9.9920
        35        2.0000           -0.3630033              -9.8778 (HOMO)
        36                         -0.2526082              -6.8738 (LUMO)
        37                         -0.1790684              -4.8727
        38                          0.0000891               0.0024
        39                          0.0181299               0.4933
        40                          0.0335736               0.9136
       ...                                ...                  ...
        62                          0.5911534              16.0861
      -------------------------------------------------------------
                  HL-Gap            0.1103950 Eh            3.0040 eV
             Fermi-level           -0.3078058 Eh           -8.3758 eV

 SCC (total)                   0 d,  0 h,  0 min,  0.013 sec
 SCC setup                      ...        0 min,  0.000 sec (  0.924%)
 Dispersion                     ...        0 min,  0.000 sec (  0.759%)
 classical contributions        ...        0 min,  0.000 sec (  0.158%)
 integral evaluation            ...        0 min,  0.001 sec ( 10.755%)
 iterations                     ...        0 min,  0.007 sec ( 54.135%)
 molecular gradient             ...        0 min,  0.004 sec ( 32.409%)
 printout                       ...        0 min,  0.000 sec (  0.774%)

         :::::::::::::::::::::::::::::::::::::::::::::::::::::
         ::                     SUMMARY                     ::
         :::::::::::::::::::::::::::::::::::::::::::::::::::::
         :: total energy             -39.784359696677 Eh    ::
         :: gradient norm              0.093525050982 Eh/a0 ::
         :: HOMO-LUMO gap              3.004001373942 eV    ::
         ::.................................................::
         :: SCC energy               -40.219775319471 Eh    ::
         :: -> isotropic ES            0.094612425719 Eh    ::
         :: -> anisotropic ES          0.005241412236 Eh    ::
         :: -> anisotropic XC          0.021742744731 Eh    ::
         :: -> dispersion             -0.019209006770 Eh    ::
         :: repulsion energy           0.435415622794 Eh    ::
         :: add. restraining           0.000000000000 Eh    ::
         :: total charge               0.000000000000 e     ::
         :::::::::::::::::::::::::::::::::::::::::::::::::::::


Property printout bound to 'properties.out'

           -------------------------------------------------
          | TOTAL ENERGY              -39.784359696677 Eh   |
          | GRADIENT NORM               0.093525050982 Eh/α |
          | HOMO-LUMO GAP               3.004001373942 eV   |
           -------------------------------------------------

------------------------------------------------------------------------
 * finished run on 2025/08/10 at 17:44:45.314     
------------------------------------------------------------------------
 total:
 * wall-time:     0 d,  0 h,  0 min,  0.019 sec
 *  cpu-time:     0 d,  0 h,  0 min,  0.018 sec
 * ratio c/w:     0.938 speedup
 SCF:
 * wall-time:     0 d,  0 h,  0 min,  0.013 sec
 *  cpu-time:     0 d,  0 h,  0 min,  0.012 sec
 * ratio c/w:     0.912 speedup


-------------------------   --------------------
FINAL SINGLE POINT ENERGY       -39.784359696680
-------------------------   --------------------


-------------
DIPOLE MOMENT
-------------
                                X             Y             Z
Total Dipole Moment    :     -1.14800       0.09000       0.37800
                        -----------------------------------------
Magnitude (a.u.)       :      1.21198
Magnitude (Debye)      :      3.08060


------------------
CARTESIAN GRADIENT
------------------

   1   N   :   -0.012848951   -0.006054014   -0.007984714
   2   C   :    0.002435002   -0.006787686    0.017069448
   3   H   :    0.001295949    0.004723012   -0.002822647
   4   H   :    0.004558892    0.006824928   -0.000771903
   5   C   :   -0.018846429    0.002328115   -0.009637062
   6   H   :    0.004216997    0.004229920   -0.000725531
   7   C   :   -0.004755723    0.005636723   -0.002104082
   8   H   :    0.000347389    0.003817759    0.000346328
   9   O   :   -0.014638405    0.007351784   -0.003764785
  10   H   :    0.001112280    0.000034266    0.001107029
  11   C   :    0.005738159   -0.009379905    0.002994459
  12   H   :    0.003275025   -0.001834626   -0.000744676
  13   H   :    0.003977332   -0.002928702    0.000719857
  14   C   :    0.004295358   -0.001565918   -0.004611613
  15   H   :   -0.002182087    0.001395925    0.002512354
  16   H   :   -0.005083544   -0.001804325   -0.002524353
  17   N   :    0.035578096   -0.007777527   -0.006445866
  18   H   :   -0.000160621   -0.001336878    0.000489193
  19   H   :   -0.003930634   -0.000529605   -0.003112380
  20   C   :   -0.028525932   -0.029130879    0.019153529
  21   H   :   -0.001244038   -0.001942406   -0.003176925
  22   N   :    0.017116444   -0.003401807   -0.009018584
  23   N   :   -0.022516227    0.039170798   -0.004447303
  24   H   :   -0.006963013    0.001485495    0.008505611
  25   H   :    0.010153937   -0.002544198    0.002456615
  26   O   :    0.027594743    0.000019752    0.006538001

Difference to translation invariance:
           :    0.0000000000   -0.0000000000   -0.0000000000

Difference to rotation invariance:
           :   -0.0000000812    0.0000000899    0.0000003707

Norm of the Cartesian gradient     ...    0.0935250510
RMS gradient                       ...    0.0105896267
MAX gradient                       ...    0.0391707983
------------------------------------------------------------------------------
                         ORCA GEOMETRY RELAXATION STEP
------------------------------------------------------------------------------

Reading the OPT-File                    .... done
Getting information on internals        .... done
Copying old internal coords+grads       .... done
Making the new internal coordinates     .... (2022 redundants) done
Validating the new internal coordinates .... (2022 redundants) done
Calculating the B-matrix                .... done
Calculating the G,G- and P matrices     .... done
Transforming gradient to internals      .... done
Projecting the internal gradient        .... done
Number of atoms                         ....  26
Number of internal coordinates          .... 112
Current Energy                          ....   -39.784359697 Eh
Current gradient norm                   ....     0.093525051 Eh/bohr
Maximum allowed component of the step   ....  0.300
Current trust radius                    ....  0.300
Evaluating the initial hessian          ....  (Almloef) done
Projecting the Hessian                  .... done
Forming the augmented Hessian           .... done
Diagonalizing the augmented Hessian     .... done
Last element of RFO vector              ....  0.957308170
Lowest eigenvalues of augmented Hessian:
 -0.015601791  0.010002905  0.010793912  0.010850723  0.011386673
Length of the computed step             ....  0.301960562
Warning: the length of the step is outside the trust region - taking restricted step instead
The input lambda is                     ....     0.009000
   iter:   5  x=   -0.011777  g=    7.331022 f(x)=     0.049661
   iter:  10  x=   -0.016017  g=    2.804984 f(x)=     0.000000
The output lambda is                    ....    -0.016017 (10 iterations)
The final length of the internal step   ....  0.300000000
Converting the step to Cartesian space:
 Initial RMS(Int)=    0.0283473355
Transforming coordinates:
 Iter   0:  RMS(Cart)=    0.1043933810 RMS(Int)=    0.8345515811
 Iter   5:  RMS(Cart)=    0.0000033542 RMS(Int)=    0.0000024331
done
Storing new coordinates                 .... done

                                .--------------------.
          ----------------------|Geometry convergence|-------------------------
          Item                value                   Tolerance       Converged
          ---------------------------------------------------------------------
          RMS gradient        0.0079336242            0.0001000000      NO
          MAX gradient        0.0498206466            0.0003000000      NO
          RMS step            0.0283473355            0.0020000000      NO
          MAX step            0.1053520155            0.0040000000      NO
          -------------------------------------------------------------------------
          ........................................................
          Max(Bonds)      0.0390      Max(Angles)    2.62
          Max(Dihed)        6.04      Max(Improp)    0.00
          ---------------------------------------------------------------------

    ---------------------------------------------------------------------------
                         Redundant Internal Coordinates
                            (Angstroem and degrees)

        Definition                    Value    dE/dq     Step     New-Value
    ----------------------------------------------------------------------------
     1. B(C   1,N   0)                1.4836  0.014716 -0.0189    1.4647   
     2. B(H   2,N   0)                1.0218  0.003184 -0.0039    1.0179   
     3. B(H   3,N   0)                1.0250  0.005416 -0.0067    1.0182   
     4. B(C   4,C   1)                1.5376  0.009540 -0.0134    1.5243   
     5. B(C   6,C   1)                1.5343  0.005743 -0.0079    1.5264   
     6. B(O   8,H   3)                2.2370 -0.001604  0.0336    2.2705   
     7. B(O   8,C   4)                1.3534  0.006039 -0.0049    1.3486   
     8. B(H   9,C   1)                1.0963  0.000697 -0.0010    1.0953   
     9. B(C  10,C   6)                1.5346  0.007060 -0.0097    1.5249   
    10. B(H  11,C   6)                1.0967  0.001827 -0.0026    1.0941   
    11. B(H  12,C   6)                1.0995  0.004269 -0.0062    1.0933   
    12. B(C  13,C  10)                1.5276 -0.001922  0.0026    1.5302   
    13. B(H  14,C  10)                1.0947  0.002837 -0.0041    1.0906   
    14. B(H  15,C  10)                1.0999  0.004781 -0.0070    1.0929   
    15. B(N  16,C  13)                1.4614 -0.001932  0.0023    1.4637   
    16. B(H  17,C  13)                1.0969  0.000825 -0.0012    1.0957   
    17. B(H  18,C  13)                1.0957  0.001198 -0.0017    1.0939   
    18. B(C  19,N  16)                1.3495 -0.041873  0.0333    1.3828   
    19. B(H  20,N  16)                1.0147  0.000755 -0.0009    1.0138   
    20. B(N  21,C  19)                1.2812  0.006129 -0.0038    1.2774   
    21. B(N  22,C  19)                1.3451 -0.049821  0.0390    1.3841   
    22. B(N  22,H   7)                1.0160 -0.000538  0.0006    1.0167   
    23. B(N  22,H   5)                1.0099 -0.002587  0.0030    1.0130   
    24. B(H  23,N  21)                1.0215  0.003905 -0.0048    1.0167   
    25. B(H  24,O   8)                0.9813  0.007494 -0.0080    0.9733   
    26. B(O  25,C   4)                1.2196  0.027839 -0.0139    1.2058   
    27. A(C   1,N   0,H   3)          106.59 -0.003918    0.97    107.56   
    28. A(H   2,N   0,H   3)          103.62 -0.002811    1.39    105.01   
    29. A(C   1,N   0,H   2)          108.66  0.001200    0.11    108.78   
    30. A(N   0,C   1,C   6)          110.67  0.000652    0.10    110.77   
    31. A(N   0,C   1,C   4)          110.58 -0.005546    1.46    112.05   
    32. A(C   6,C   1,H   9)          110.15 -0.001095   -0.32    109.84   
    33. A(N   0,C   1,H   9)          108.40  0.002371   -0.74    107.65   
    34. A(C   4,C   1,H   9)          107.13  0.001348   -0.40    106.73   
    35. A(C   4,C   1,C   6)          109.83  0.002263   -0.13    109.70   
    36. A(C   1,C   4,O   8)          113.46  0.003137   -0.39    113.07   
    37. A(C   1,C   4,O  25)          126.79  0.004581   -0.53    126.26   
    38. A(O   8,C   4,O  25)          119.73 -0.007737    0.96    120.69   
    39. A(C  10,C   6,H  12)          109.06 -0.002115    0.49    109.55   
    40. A(C   1,C   6,H  12)          109.01 -0.000367   -0.15    108.86   
    41. A(C  10,C   6,H  11)          109.30 -0.002266    0.32    109.62   
    42. A(C   1,C   6,H  11)          109.36 -0.000687   -0.15    109.21   
    43. A(C   1,C   6,C  10)          113.66  0.006356   -1.24    112.42   
    44. A(H  11,C   6,H  12)          106.19 -0.001434    0.87    107.06   
    45. A(C   4,O   8,H  24)          103.68 -0.014289    2.14    105.81   
    46. A(H  14,C  10,H  15)          107.12 -0.000056    0.30    107.43   
    47. A(C  13,C  10,H  15)          107.36 -0.003821    0.85    108.20   
    48. A(C   6,C  10,H  15)          109.84  0.003372   -0.44    109.40   
    49. A(C  13,C  10,H  14)          110.52  0.002370   -0.68    109.84   
    50. A(C   6,C  10,H  14)          109.48  0.000672   -0.27    109.20   
    51. A(C   6,C  10,C  13)          112.37 -0.002462    0.26    112.63   
    52. A(H  17,C  13,H  18)          106.57 -0.004219    0.67    107.24   
    53. A(N  16,C  13,H  18)          111.69  0.006243   -1.29    110.40   
    54. A(C  10,C  13,H  18)          110.36  0.000191   -0.40    109.96   
    55. A(N  16,C  13,H  17)          107.83 -0.001826    0.81    108.64   
    56. A(C  10,C  13,H  17)          108.46  0.001183   -0.01    108.45   
    57. A(C  10,C  13,N  16)          111.71 -0.001868    0.31    112.02   
    58. A(C  19,N  16,H  20)          110.93  0.000375    0.81    111.74   
    59. A(C  13,N  16,H  20)          109.21 -0.004211    1.69    110.90   
    60. A(C  13,N  16,C  19)          119.90 -0.000586    0.68    120.58   
    61. A(N  21,C  19,N  22)          119.75  0.005006   -0.62    119.12   
    62. A(N  16,C  19,N  22)          113.50 -0.010766    1.34    114.85   
    63. A(N  16,C  19,N  21)          126.74  0.005760   -0.72    126.02   
    64. A(C  19,N  21,H  23)          107.97 -0.017879    2.62    110.59   
    65. A(H   7,N  22,C  19)          108.62 -0.006324    1.38    110.00   
    66. A(H   5,N  22,C  19)          113.77 -0.004475    1.06    114.83   
    67. A(H   5,N  22,H   7)          109.50  0.001258    0.64    110.14   
    68. D(C   4,C   1,N   0,H   3)    -48.65  0.002501   -0.73    -49.38   
    69. D(C   6,C   1,N   0,H   2)    -59.50 -0.001596    0.48    -59.01   
    70. D(C   6,C   1,N   0,H   3)   -170.59  0.002959   -1.63   -172.22   
    71. D(H   9,C   1,N   0,H   2)    179.60 -0.002161    1.29    180.89   
    72. D(C   4,C   1,N   0,H   2)     62.44 -0.002054    1.38     63.82   
    73. D(O  25,C   4,C   1,C   6)    -38.47 -0.001122    1.20    -37.27   
    74. D(O   8,C   4,C   1,C   6)    143.10 -0.000181   -0.37    142.73   
    75. D(O  25,C   4,C   1,N   0)   -160.90  0.000225    0.18   -160.72   
    76. D(O   8,C   4,C   1,H   9)    -97.27  0.000565   -1.06    -98.33   
    77. D(O   8,C   4,C   1,N   0)     20.67  0.001166   -1.39     19.28   
    78. D(H  11,C   6,C   1,N   0)     63.71 -0.001649   -0.22     63.49   
    79. D(H  11,C   6,C   1,C   4)    -58.67  0.003373   -2.05    -60.71   
    80. D(C  10,C   6,C   1,C   4)    178.90  0.002400   -1.49    177.41   
    81. D(C  10,C   6,C   1,H   9)     61.13  0.000041   -0.73     60.40   
    82. D(C  10,C   6,C   1,N   0)    -58.72 -0.002622    0.33    -58.39   
    83. D(H  11,C   6,C   1,H   9)   -176.43  0.001014   -1.29   -177.72   
    84. D(H  24,O   8,C   4,O  25)      0.71  0.000571   -0.99     -0.28   
    85. D(H  24,O   8,C   4,C   1)    179.26 -0.000098    0.44    179.70   
    86. D(H  14,C  10,C   6,H  12)     56.96  0.002926   -0.89     56.08   
    87. D(H  14,C  10,C   6,H  11)    172.66 -0.001211    0.60    173.26   
    88. D(H  14,C  10,C   6,C   1)    -64.88  0.000629   -0.22    -65.09   
    89. D(C  13,C  10,C   6,H  12)    -66.24  0.001101    0.01    -66.24   
    90. D(C  13,C  10,C   6,H  11)     49.45 -0.003035    1.49     50.94   
    91. D(C  13,C  10,C   6,C   1)    171.92 -0.001196    0.68    172.59   
    92. D(H  17,C  13,C  10,H  15)    -45.79 -0.000395   -0.63    -46.42   
    93. D(H  17,C  13,C  10,H  14)     70.72 -0.001386   -0.15     70.57   
    94. D(H  17,C  13,C  10,C   6)   -166.66 -0.000535   -0.82   -167.48   
    95. D(N  16,C  13,C  10,H  15)   -164.50  0.002219   -1.81   -166.31   
    96. D(N  16,C  13,C  10,H  14)    -47.99  0.001229   -1.33    -49.31   
    97. D(N  16,C  13,C  10,C   6)     74.63  0.002080   -1.99     72.64   
    98. D(C  19,N  16,C  13,C  10)   -124.47 -0.001471   -0.37   -124.85   
    99. D(H  20,N  16,C  13,H  17)    -13.11  0.003677   -4.64    -17.74   
   100. D(H  20,N  16,C  13,C  10)    105.98  0.002869   -3.95    102.03   
   101. D(C  19,N  16,C  13,H  18)     -0.32  0.002066   -1.64     -1.96   
   102. D(C  19,N  16,C  13,H  17)    116.44 -0.000663   -1.06    115.39   
   103. D(N  22,C  19,N  16,H  20)      3.79  0.000293   -2.01      1.79   
   104. D(N  22,C  19,N  16,C  13)   -124.98  0.006759   -6.04   -131.02   
   105. D(N  21,C  19,N  16,H  20)   -177.48  0.000318   -2.01   -179.49   
   106. D(N  21,C  19,N  16,C  13)     53.74  0.006785   -6.04     47.70   
   107. D(H  23,N  21,C  19,N  22)   -177.67  0.004232   -3.50   -181.17   
   108. D(H  23,N  21,C  19,N  16)      3.68  0.004383   -3.52      0.16   
   109. D(H   7,N  22,C  19,N  21)      4.67  0.001407    0.49      5.16   
   110. D(H   7,N  22,C  19,N  16)   -176.51  0.001460    0.49   -176.03   
   111. D(H   5,N  22,C  19,N  21)    126.90 -0.004637    3.04    129.93   
   112. D(H   5,N  22,C  19,N  16)    -54.28 -0.004584    3.03    -51.25   
    ----------------------------------------------------------------------------

Geometry step timings:
Preparation and reading OPT file:      0.000 s ( 0.611 %)
Internal coordinates            :      0.000 s ( 0.883 %)
B/P matrices and projection     :      0.001 s (28.988 %)
Hessian update/contruction      :      0.000 s ( 9.674 %)
Making the step                 :      0.001 s (39.070 %)
Converting the step to Cartesian:      0.000 s ( 3.428 %)
Storing new data                :      0.000 s ( 0.883 %)
Checking convergence            :      0.000 s ( 0.984 %)
Final printing                  :      0.000 s (15.479 %)
Total time                      :      0.003 s

Time for energy+gradient        :      0.023 s
Time for complete geometry iter :      0.027 s

         *************************************************************
         *                GEOMETRY OPTIMIZATION CYCLE   2            *
         *************************************************************
---------------------------------
CARTESIAN COORDINATES (ANGSTROEM)
---------------------------------
  N    -1.189855    1.311564   -0.350995
  C    -0.094737    0.847841    0.503967
  H    -0.865352    1.334334   -1.315500
  H    -1.375264    2.283929   -0.112399
  C     1.085562    1.812353    0.495558
  H     2.006837   -5.667422    1.170793
  C     0.373215   -0.541246    0.078200
  H     3.051713   -5.616131   -0.122705
  O     0.754838    3.048521    0.069986
  H    -0.467845    0.815062    1.533209
  C    -0.748884   -1.572714    0.125677
  H     0.780924   -0.488571   -0.935680
  H     1.187954   -0.856586    0.735441
  C    -0.335158   -2.920411   -0.469322
  H    -1.069076   -1.707143    1.159538
  H    -1.608400   -1.200307   -0.437420
  N     0.589103   -3.645073    0.404110
  H    -1.235571   -3.529100   -0.608406
  H     0.111291   -2.771236   -1.456805
  C     1.814768   -4.074086   -0.071171
  H     0.106516   -4.378248    0.911335
  N     2.649648   -3.372767   -0.736605
  N     2.112557   -5.398243    0.199998
  H     2.293728   -2.430704   -0.876581
  H     1.574771    3.571340    0.110988
  O     2.217531    1.556743    0.822954

----------------------------
CARTESIAN COORDINATES (A.U.)
----------------------------
  NO LB    ZA    FRAG    MASS        X           Y           Z
   0 N   7.0000    1    14.007   -2.248500    2.478496   -0.663285
   1 C   6.0000    1    12.011   -0.179027    1.602187    0.952359
   2 H   1.0000    1     1.008   -1.635278    2.521526   -2.485935
   3 H   1.0000    1     1.008   -2.598873    4.316000   -0.212403
   4 C   6.0000    1    12.011    2.051414    3.424851    0.936470
   5 H   1.0000    1     1.008    3.792371  -10.709876    2.212478
   6 C   6.0000    1    12.011    0.705275   -1.022806    0.147777
   7 H   1.0000    1     1.008    5.766901  -10.612950   -0.231878
   8 O   8.0000    1    15.999    1.426438    5.760870    0.132255
   9 H   1.0000    1     1.008   -0.884098    1.540244    2.897345
  10 C   6.0000    1    12.011   -1.415186   -2.971998    0.237496
  11 H   1.0000    1     1.008    1.475733   -0.923265   -1.768178
  12 H   1.0000    1     1.008    2.244907   -1.618712    1.389781
  13 C   6.0000    1    12.011   -0.633357   -5.518776   -0.886890
  14 H   1.0000    1     1.008   -2.020262   -3.226033    2.191210
  15 H   1.0000    1     1.008   -3.039435   -2.268252   -0.826605
  16 N   7.0000    1    14.007    1.113243   -6.888189    0.763658
  17 H   1.0000    1     1.008   -2.334890   -6.669032   -1.149720
  18 H   1.0000    1     1.008    0.210310   -5.236878   -2.752962
  19 C   6.0000    1    12.011    3.429415   -7.698907   -0.134494
  20 H   1.0000    1     1.008    0.201287   -8.273690    1.722174
  21 N   7.0000    1    14.007    5.007110   -6.373606   -1.391983
  22 N   7.0000    1    14.007    3.992155  -10.201202    0.377941
  23 H   1.0000    1     1.008    4.334517   -4.593364   -1.656498
  24 H   1.0000    1     1.008    2.975886    6.748855    0.209736
  25 O   8.0000    1    15.999    4.190527    2.941819    1.555158

      -----------------------------------------------------------      
     |                   =====================                   |     
     |                           x T B                           |     
     |                   =====================                   |     
     |                         S. Grimme                         |     
     |          Mulliken Center for Theoretical Chemistry        |     
     |                    University of Bonn                     |     
      -----------------------------------------------------------      

   * xtb version 6.7.1 (edcfbbe) compiled by 'albert@albert-system' on 2024-07-22

   xtb is free software: you can redistribute it and/or modify it under
   the terms of the GNU Lesser General Public License as published by
   the Free Software Foundation, either version 3 of the License, or
   (at your option) any later version.
   
   xtb is distributed in the hope that it will be useful,
   but WITHOUT ANY WARRANTY; without even the implied warranty of
   MERCHANTABILITY or FITNESS FOR A PARTICULAR PURPOSE.  See the
   GNU Lesser General Public License for more details.
   
   Cite this work as:
   * C. Bannwarth, E. Caldeweyher, S. Ehlert, A. Hansen, P. Pracht,
     J. Seibert, S. Spicher, S. Grimme, WIREs Comput. Mol. Sci., 2020, 11,
     e01493. DOI: 10.1002/wcms.1493
   
   for GFN2-xTB:
   * C. Bannwarth, S. Ehlert and S. Grimme., J. Chem. Theory Comput., 2019,
     15, 1652-1671. DOI: 10.1021/acs.jctc.8b01176
   for GFN1-xTB:
   * S. Grimme, C. Bannwarth, P. Shushkov, J. Chem. Theory Comput., 2017,
     13, 1989-2009. DOI: 10.1021/acs.jctc.7b00118
   for GFN0-xTB:
   * P. Pracht, E. Caldeweyher, S. Ehlert, S. Grimme, ChemRxiv, 2019, preprint.
     DOI: 10.26434/chemrxiv.8326202.v1
   for GFN-FF:
   * S. Spicher and S. Grimme, Angew. Chem. Int. Ed., 2020, 59, 15665-15673.
     DOI: 10.1002/anie.202004239
   
   for ALPB and GBSA implicit solvation:
   * S. Ehlert, M. Stahn, S. Spicher, S. Grimme, J. Chem. Theory Comput.,
     2021, 17, 4250-4261. DOI: 10.1021/acs.jctc.1c00471
   
   for ddCOSMO and CPCM-X implicit solvation:
   * M. Stahn, S. Ehlert, S. Grimme, J. Phys. Chem. A,
     2023, XX, XXXX-XXXX. DOI: 10.1021/acs.jpca.3c04382
   
   for DFT-D4:
   * E. Caldeweyher, C. Bannwarth and S. Grimme, J. Chem. Phys., 2017,
     147, 034112. DOI: 10.1063/1.4993215
   * E. Caldeweyher, S. Ehlert, A. Hansen, H. Neugebauer, S. Spicher,
     C. Bannwarth and S. Grimme, J. Chem. Phys., 2019, 150, 154122.
     DOI: 10.1063/1.5090222
   * E. Caldeweyher, J.-M. Mewes, S. Ehlert and S. Grimme, Phys. Chem. Chem. Phys.
     2020, 22, 8499-8512. DOI: 10.1039/D0CP00502A
   
   for sTDA-xTB:
   * S. Grimme and C. Bannwarth, J. Chem. Phys., 2016, 145, 054103.
     DOI: 10.1063/1.4959605
   
   in the mass-spec context:
   * V. Asgeirsson, C. Bauer and S. Grimme, Chem. Sci., 2017, 8, 4879.
     DOI: 10.1039/c7sc00601b
   * J. Koopman and S. Grimme, ACS Omega 2019, 4, 12, 15120-15133.
     DOI: 10.1021/acsomega.9b02011
   
   for metadynamics refer to:
   * S. Grimme, J. Chem. Theory Comput., 2019, 155, 2847-2862
     DOI: 10.1021/acs.jctc.9b00143
   
   for SPH calculations refer to:
   * S. Spicher and S. Grimme, J. Chem. Theory Comput., 2021, 17, 1701-1714
     DOI: 10.1021/acs.jctc.0c01306
   
   for ONIOM refer to:
   * C. Plett, A. Katbashev, S. Ehlert, S. Grimme, M. Bursch,
     Phys. Chem. Chem. Phys., 2023, 25, 17860-17868. DOI: 10.1039/D3CP02178E
   
   for DIPRO refer to:
   * J. Kohn, N. Gildemeister, S. Grimme, D. Fazzi, A. Hansen,
     J. Chem. Phys., 2023, just accepted.
   
   for PTB refer to:
   * S. Grimme, M. Mueller, A. Hansen, J. Chem. Phys., 2023, 158, 124111.
     DOI: 10.1063/5.0137838
   
   with help from (in alphabetical order)
   P. Atkinson, C. Bannwarth, F. Bohle, G. Brandenburg, E. Caldeweyher
   M. Checinski, S. Dohm, S. Ehlert, S. Ehrlich, I. Gerasimov, C. Hölzer
   A. Katbashev, J. Kohn, J. Koopman, C. Lavigne, S. Lehtola, F. März, M. Müller,
   F. Musil, H. Neugebauer, J. Pisarek, C. Plett, P. Pracht, F. Pultar,
   J. Seibert, P. Shushkov, S. Spicher, M. Stahn, M. Steiner, T. Strunk,
   J. Stückrath, T. Rose, and J. Unsleber
   
 * started run on 2025/08/10 at 17:44:45.321     
   ID    Z sym.   atoms
    1    7 N      1, 17, 22, 23
    2    6 C      2, 5, 7, 11, 14, 20
    3    1 H      3, 4, 6, 8, 10, 12, 13, 15, 16, 18, 19, 21, 24, 25
    4    8 O      9, 26

           -------------------------------------------------
          |                Calculation Setup                |
           -------------------------------------------------

          program call               : /home/test/orca/orca_6_1_0_linux_x86-64_shared_openmpi418/otool_xtb r_XTB.xyz --grad -c 0 -u 0 -P 1 --namespace r --input r_XTB.input.tmp --acc 0.200000
          calculation namespace      : r
          coordinate file            : r_XTB.xyz
          omp threads                :                     1


           -------------------------------------------------
          |                 G F N 2 - x T B                 |
           -------------------------------------------------

        Reference                      10.1021/acs.jctc.8b01176
      * Hamiltonian:
        H0-scaling (s, p, d)           1.850000    2.230000    2.230000
        zeta-weighting                 0.500000
      * Dispersion:
        s8                             2.700000
        a1                             0.520000
        a2                             5.000000
        s9                             5.000000
      * Repulsion:
        kExp                           1.500000    1.000000
        rExp                           1.000000
      * Coulomb:
        alpha                          2.000000
        third order                    shell-resolved
        anisotropic                    true
        a3                             3.000000
        a5                             4.000000
        cn-shift                       1.200000
        cn-exp                         4.000000
        max-rad                        5.000000

q/qsh data taken from xtbrestart
CAMM data taken from xtbrestart

          ...................................................
          :                      SETUP                      :
          :.................................................:
          :  # basis functions                  62          :
          :  # atomic orbitals                  62          :
          :  # shells                           38          :
          :  # electrons                        70          :
          :  max. iterations                   250          :
          :  Hamiltonian                  GFN2-xTB          :
          :  restarted?                       true          :
          :  GBSA solvation                  false          :
          :  PC potential                    false          :
          :  electronic temp.          300.0000000     K    :
          :  accuracy                    0.2000000          :
          :  -> integral cutoff          0.3198970E+02      :
          :  -> integral neglect         0.2000000E-08      :
          :  -> SCF convergence          0.2000000E-06 Eh   :
          :  -> wf. convergence          0.2000000E-04 e    :
          :  Broyden damping             0.4000000          :
          :  net charge                          0          :
          :  unpaired electrons                  0          :
          ...................................................

 iter      E             dE          RMSdq      gap      omega  full diag
   1    -40.2331882 -0.402332E+02  0.320E-01    3.20       0.0  T
   2    -40.2334873 -0.299091E-03  0.205E-01    3.24       1.0  T
   3    -40.2335312 -0.439687E-04  0.102E-01    3.19       1.0  T
   4    -40.2335973 -0.660311E-04  0.166E-02    3.19       1.2  T
   5    -40.2335995 -0.220829E-05  0.656E-03    3.19       3.0  T
   6    -40.2335995 -0.276766E-07  0.228E-03    3.19       8.6  T
   7    -40.2335995 -0.380436E-07  0.518E-04    3.19      37.8  T
   8    -40.2335995 -0.122098E-08  0.236E-04    3.19      83.2  T
   9    -40.2335995 -0.142407E-09  0.635E-05    3.19     308.7  T
  10    -40.2335995 -0.928679E-11  0.279E-05    3.19     702.1  T

   *** convergence criteria satisfied after 10 iterations ***

         #    Occupation            Energy/Eh            Energy/eV
      -------------------------------------------------------------
         1        2.0000           -0.7558078             -20.5666
       ...           ...                  ...                  ...
        29        2.0000           -0.4464243             -12.1478
        30        2.0000           -0.4442274             -12.0880
        31        2.0000           -0.4332227             -11.7886
        32        2.0000           -0.3922192             -10.6728
        33        2.0000           -0.3812269             -10.3737
        34        2.0000           -0.3676445             -10.0041
        35        2.0000           -0.3636356              -9.8950 (HOMO)
        36                         -0.2464082              -6.7051 (LUMO)
        37                         -0.1811415              -4.9291
        38                          0.0059308               0.1614
        39                          0.0145085               0.3948
        40                          0.0492227               1.3394
       ...                                ...                  ...
        62                          0.6124348              16.6652
      -------------------------------------------------------------
                  HL-Gap            0.1172274 Eh            3.1899 eV
             Fermi-level           -0.3050219 Eh           -8.3001 eV

 SCC (total)                   0 d,  0 h,  0 min,  0.015 sec
 SCC setup                      ...        0 min,  0.000 sec (  0.809%)
 Dispersion                     ...        0 min,  0.000 sec (  0.645%)
 classical contributions        ...        0 min,  0.000 sec (  0.127%)
 integral evaluation            ...        0 min,  0.001 sec (  9.265%)
 iterations                     ...        0 min,  0.009 sec ( 60.772%)
 molecular gradient             ...        0 min,  0.004 sec ( 27.750%)
 printout                       ...        0 min,  0.000 sec (  0.559%)

         :::::::::::::::::::::::::::::::::::::::::::::::::::::
         ::                     SUMMARY                     ::
         :::::::::::::::::::::::::::::::::::::::::::::::::::::
         :: total energy             -39.794513295097 Eh    ::
         :: gradient norm              0.035723108945 Eh/a0 ::
         :: HOMO-LUMO gap              3.189919596488 eV    ::
         ::.................................................::
         :: SCC energy               -40.233562996757 Eh    ::
         :: -> isotropic ES            0.093033203491 Eh    ::
         :: -> anisotropic ES          0.005570377095 Eh    ::
         :: -> anisotropic XC          0.021059164967 Eh    ::
         :: -> dispersion             -0.019161769415 Eh    ::
         :: repulsion energy           0.439049701661 Eh    ::
         :: add. restraining           0.000000000000 Eh    ::
         :: total charge              -0.000000000000 e     ::
         :::::::::::::::::::::::::::::::::::::::::::::::::::::


Property printout bound to 'properties.out'

           -------------------------------------------------
          | TOTAL ENERGY              -39.794513295097 Eh   |
          | GRADIENT NORM               0.035723108945 Eh/α |
          | HOMO-LUMO GAP               3.189919596488 eV   |
           -------------------------------------------------

------------------------------------------------------------------------
 * finished run on 2025/08/10 at 17:44:45.348     
------------------------------------------------------------------------
 total:
 * wall-time:     0 d,  0 h,  0 min,  0.026 sec
 *  cpu-time:     0 d,  0 h,  0 min,  0.020 sec
 * ratio c/w:     0.741 speedup
 SCF:
 * wall-time:     0 d,  0 h,  0 min,  0.015 sec
 *  cpu-time:     0 d,  0 h,  0 min,  0.014 sec
 * ratio c/w:     0.926 speedup


-------------------------   --------------------
FINAL SINGLE POINT ENERGY       -39.794513295100
-------------------------   --------------------


-------------
DIPOLE MOMENT
-------------
                                X             Y             Z
Total Dipole Moment    :     -1.10300       0.25500       0.41600
                        -----------------------------------------
Magnitude (a.u.)       :      1.20611
Magnitude (Debye)      :      3.06568


------------------
CARTESIAN GRADIENT
------------------

   1   N   :   -0.005674127   -0.003728039   -0.003172442
   2   C   :    0.003270487   -0.004472647    0.008133804
   3   H   :    0.001054681    0.002713928   -0.000112811
   4   H   :    0.004074532    0.002397526   -0.000483512
   5   C   :   -0.007079332   -0.000484125   -0.002449679
   6   H   :    0.003220526    0.000377099    0.001694251
   7   C   :   -0.004705912    0.005042413   -0.001017973
   8   H   :    0.002552810   -0.000710114   -0.000616343
   9   O   :   -0.006687889    0.003683125   -0.002415024
  10   H   :    0.000974817    0.000664564   -0.001265201
  11   C   :    0.003202307   -0.002323295    0.001431319
  12   H   :    0.001738032   -0.001328680    0.000413872
  13   H   :    0.000606370   -0.000992950    0.000140456
  14   C   :   -0.000592946    0.000006722   -0.004742880
  15   H   :   -0.000522353    0.001299418   -0.000182087
  16   H   :   -0.001626300   -0.001081969   -0.000203541
  17   N   :    0.009007135    0.003555716    0.001602312
  18   H   :   -0.000372765   -0.000087987    0.000411478
  19   H   :   -0.002377846   -0.000168384   -0.001179583
  20   C   :   -0.010912134   -0.008922004    0.009172942
  21   H   :   -0.001307347   -0.001824188   -0.001305751
  22   N   :    0.013048504    0.003068159   -0.006842151
  23   N   :   -0.008495707    0.004801011   -0.003595551
  24   H   :   -0.003842997    0.000533673    0.004128139
  25   H   :    0.004182894   -0.003307381    0.001746398
  26   O   :    0.007264562    0.001288412    0.000709556

Difference to translation invariance:
           :    0.0000000000    0.0000000000   -0.0000000000

Difference to rotation invariance:
           :   -0.0000001143   -0.0000001256    0.0000002679

Norm of the Cartesian gradient     ...    0.0357231089
RMS gradient                       ...    0.0040448456
MAX gradient                       ...    0.0130485041
------------------------------------------------------------------------------
                         ORCA GEOMETRY RELAXATION STEP
------------------------------------------------------------------------------

Reading the OPT-File                    .... done
Getting information on internals        .... done
Copying old internal coords+grads       .... done
Making the new internal coordinates     .... (2022 redundants) done
Validating the new internal coordinates .... (2022 redundants) done
Calculating the B-matrix                .... done
Calculating the G,G- and P matrices     .... done
Transforming gradient to internals      .... done
Projecting the internal gradient        .... done
Number of atoms                         ....  26
Number of internal coordinates          .... 112
Current Energy                          ....   -39.794513295 Eh
Current gradient norm                   ....     0.035723109 Eh/bohr
Maximum allowed component of the step   ....  0.300
Current trust radius                    ....  0.300
Updating the Hessian (BFGS)             .... done
Forming the augmented Hessian           .... done
Diagonalizing the augmented Hessian     .... done
Last element of RFO vector              ....  0.947549437
Lowest eigenvalues of augmented Hessian:
 -0.005118535  0.010011579  0.010804429  0.010909116  0.011397457
Length of the computed step             ....  0.337300856
Warning: the length of the step is outside the trust region - taking restricted step instead
The input lambda is                     ....     0.008994
   iter:   5  x=   -0.004528  g=   18.856636 f(x)=     0.088506
   iter:  10  x=   -0.008798  g=    5.218557 f(x)=     0.000000
The output lambda is                    ....    -0.008798 (11 iterations)
The final length of the internal step   ....  0.300000000
Converting the step to Cartesian space:
 Initial RMS(Int)=    0.0283473355
Transforming coordinates:
 Iter   0:  RMS(Cart)=    0.1179612771 RMS(Int)=    0.5907701417
 Iter   5:  RMS(Cart)=    0.0000043612 RMS(Int)=    0.0000025532
done
Storing new coordinates                 .... done
The predicted energy change is          ....    -0.002769287
Previously predicted energy change      ....    -0.008502854
Actually observed energy change         ....    -0.010153598
Ratio of predicted to observed change   ....     1.194139991
New trust radius                        ....     0.450000000

                                .--------------------.
          ----------------------|Geometry convergence|-------------------------
          Item                value                   Tolerance       Converged
          ---------------------------------------------------------------------
          Energy change      -0.0101535984            0.0000050000      NO
          RMS gradient        0.0024375490            0.0001000000      NO
          MAX gradient        0.0098851855            0.0003000000      NO
          RMS step            0.0283473355            0.0020000000      NO
          MAX step            0.1162210897            0.0040000000      NO
          -------------------------------------------------------------------------
          ........................................................
          Max(Bonds)      0.0503      Max(Angles)    2.40
          Max(Dihed)        6.66      Max(Improp)    0.00
          ---------------------------------------------------------------------

    ---------------------------------------------------------------------------
                         Redundant Internal Coordinates
                            (Angstroem and degrees)

        Definition                    Value    dE/dq     Step     New-Value
    ----------------------------------------------------------------------------
     1. B(C   1,N   0)                1.4647  0.004248 -0.0097    1.4550   
     2. B(H   2,N   0)                1.0179  0.000504 -0.0014    1.0165   
     3. B(H   3,N   0)                1.0182  0.001116 -0.0030    1.0153   
     4. B(C   4,C   1)                1.5243  0.000724 -0.0024    1.5219   
     5. B(C   6,C   1)                1.5264 -0.001363  0.0017    1.5281   
     6. B(O   8,H   3)                2.2705 -0.001874  0.0503    2.3208   
     7. B(O   8,C   4)                1.3486  0.001270 -0.0021    1.3465   
     8. B(H   9,C   1)                1.0953 -0.001541  0.0030    1.0983   
     9. B(C  10,C   6)                1.5249  0.000270 -0.0017    1.5231   
    10. B(H  11,C   6)                1.0941  0.000200 -0.0007    1.0933   
    11. B(H  12,C   6)                1.0933  0.000823 -0.0025    1.0908   
    12. B(C  13,C  10)                1.5302 -0.000079  0.0005    1.5307   
    13. B(H  14,C  10)                1.0906 -0.000179 -0.0001    1.0905   
    14. B(H  15,C  10)                1.0929  0.001015 -0.0030    1.0900   
    15. B(N  16,C  13)                1.4637  0.004159 -0.0067    1.4569   
    16. B(H  17,C  13)                1.0957  0.000303 -0.0008    1.0949   
    17. B(H  18,C  13)                1.0939  0.000071 -0.0004    1.0936   
    18. B(C  19,N  16)                1.3828 -0.005016  0.0101    1.3929   
    19. B(H  20,N  16)                1.0138  0.001288 -0.0023    1.0114   
    20. B(N  21,C  19)                1.2774  0.009408 -0.0088    1.2686   
    21. B(N  22,C  19)                1.3841 -0.005354  0.0111    1.3952   
    22. B(N  22,H   7)                1.0167  0.002706 -0.0046    1.0121   
    23. B(N  22,H   5)                1.0130  0.001187 -0.0016    1.0113   
    24. B(H  23,N  21)                1.0167  0.001271 -0.0028    1.0139   
    25. B(H  24,O   8)                0.9733  0.001821 -0.0038    0.9695   
    26. B(O  25,C   4)                1.2058  0.006739 -0.0066    1.1991   
    27. A(C   1,N   0,H   3)          107.56 -0.002817    1.26    108.82   
    28. A(H   2,N   0,H   3)          104.99 -0.001192    1.40    106.39   
    29. A(C   1,N   0,H   2)          108.77 -0.000554    0.47    109.24   
    30. A(N   0,C   1,C   6)          110.76  0.000036    0.17    110.94   
    31. A(N   0,C   1,C   4)          112.05 -0.002473    1.46    113.51   
    32. A(C   6,C   1,H   9)          109.84  0.000129   -0.60    109.23   
    33. A(N   0,C   1,H   9)          107.66  0.000794   -0.55    107.10   
    34. A(C   4,C   1,H   9)          106.73  0.000842   -0.47    106.26   
    35. A(C   4,C   1,C   6)          109.69  0.000730   -0.05    109.64   
    36. A(C   1,C   4,O   8)          113.07  0.003393   -0.57    112.50   
    37. A(C   1,C   4,O  25)          126.25  0.001767   -0.43    125.82   
    38. A(O   8,C   4,O  25)          120.68 -0.005160    0.95    121.63   
    39. A(C  10,C   6,H  12)          109.55 -0.001386    0.53    110.08   
    40. A(C   1,C   6,H  12)          108.86 -0.000206   -0.02    108.84   
    41. A(C  10,C   6,H  11)          109.61 -0.001192    0.25    109.86   
    42. A(C   1,C   6,H  11)          109.20  0.000200   -0.31    108.89   
    43. A(C   1,C   6,C  10)          112.41  0.002789   -0.93    111.48   
    44. A(H  11,C   6,H  12)          107.06 -0.000343    0.58    107.64   
    45. A(C   4,O   8,H  24)          105.81 -0.009759    2.35    108.16   
    46. A(H  14,C  10,H  15)          107.43 -0.000444    0.44    107.87   
    47. A(C  13,C  10,H  15)          108.20 -0.001535    0.66    108.86   
    48. A(C   6,C  10,H  15)          109.40  0.001200   -0.23    109.17   
    49. A(C  13,C  10,H  14)          109.84  0.001400   -0.72    109.12   
    50. A(C   6,C  10,H  14)          109.20 -0.000296   -0.10    109.10   
[...]
		       66     3.344	     1       0.09      95.94
		       67     3.344	     1       0.09      96.04
		       68     3.388	     1       0.09      96.12
		       69     3.393	     1       0.09      96.21
		       70     3.411	     1       0.08      96.29
		       71     3.437	     1       0.08      96.37
		       72     3.459	     1       0.08      96.45
		       73     3.469	     1       0.08      96.52
		       74     3.493	     1       0.07      96.59
		       75     3.533	     1       0.07      96.66
		       76     3.538	     1       0.07      96.73
		       77     3.550	     1       0.07      96.79
		       78     3.563	     1       0.06      96.86
		       79     3.564	     1       0.06      96.92
		       80     3.583	     1       0.06      96.98
		       81     3.583	     1       0.06      97.05
		       82     3.593	     1       0.06      97.11
		       83     3.614	     1       0.06      97.17
		       84     3.637	     1       0.06      97.22
		       85     3.638	     1       0.06      97.28
		       86     3.639	     1       0.06      97.34
		       87     3.650	     1       0.06      97.39
		       88     3.659	     1       0.05      97.45
		       89     3.682	     1       0.05      97.50
		       90     3.697	     1       0.05      97.55
		       91     3.701	     1       0.05      97.60
		       92     3.719	     1       0.05      97.65
		       93     3.742	     1       0.05      97.70
		       94     3.744	     1       0.05      97.74
		       95     3.748	     1       0.05      97.79
		       96     3.761	     1       0.05      97.84
		       97     3.784	     1       0.04      97.88
		       98     3.826	     1       0.04      97.92
		       99     3.860	     1       0.04      97.96
		      100     3.866	     1       0.04      98.00
		      101     3.869	     1       0.04      98.04
		      102     3.900	     1       0.04      98.07
		      103     3.924	     1       0.03      98.11
		      104     3.952	     1       0.03      98.14
		      105     3.976	     1       0.03      98.17
		      106     3.979	     1       0.03      98.21
		      107     3.980	     1       0.03      98.24
		      108     4.000	     1       0.03      98.27
		      109     4.034	     1       0.03      98.30
		      110     4.048	     1       0.03      98.33
		      111     4.049	     1       0.03      98.35
		      112     4.052	     1       0.03      98.38
		      113     4.058	     1       0.03      98.41
		      114     4.074	     1       0.03      98.44
		      115     4.080	     1       0.03      98.46
		      116     4.099	     1       0.03      98.49
		      117     4.111	     1       0.03      98.51
		      118     4.118	     1       0.03      98.54
		      119     4.144	     1       0.02      98.56
		      120     4.171	     1       0.02      98.59
		      121     4.194	     1       0.02      98.61
		      122     4.239	     1       0.02      98.63
		      123     4.240	     1       0.02      98.65
		      124     4.242	     1       0.02      98.67
		      125     4.255	     1       0.02      98.69
		      126     4.258	     1       0.02      98.71
		      127     4.274	     1       0.02      98.73
		      128     4.275	     1       0.02      98.75
		      129     4.296	     1       0.02      98.77
		      130     4.299	     1       0.02      98.79
		      131     4.308	     1       0.02      98.80
		      132     4.309	     1       0.02      98.82
		      133     4.323	     1       0.02      98.84
		      134     4.337	     1       0.02      98.86
		      135     4.341	     1       0.02      98.87
		      136     4.370	     1       0.02      98.89
		      137     4.370	     1       0.02      98.91
		      138     4.389	     1       0.02      98.92
		      139     4.403	     1       0.02      98.94
		      140     4.408	     1       0.02      98.95
		      141     4.412	     1       0.02      98.97
		      142     4.412	     1       0.02      98.99
		      143     4.428	     1       0.01      99.00
		      144     4.433	     1       0.01      99.01
		      145     4.439	     1       0.01      99.03
		      146     4.446	     1       0.01      99.04
		      147     4.452	     1       0.01      99.06
		      148     4.459	     1       0.01      99.07
		      149     4.462	     1       0.01      99.09
		      150     4.475	     1       0.01      99.10
		      151     4.521	     1       0.01      99.11
		      152     4.521	     1       0.01      99.13
		      153     4.543	     1       0.01      99.14
		      154     4.543	     1       0.01      99.15
		      155     4.561	     1       0.01      99.16
		      156     4.590	     1       0.01      99.17
		      157     4.591	     1       0.01      99.18
		      158     4.593	     1       0.01      99.20
		      159     4.614	     1       0.01      99.21
		      160     4.622	     1       0.01      99.22
		      161     4.628	     1       0.01      99.23
		      162     4.638	     1       0.01      99.24
		      163     4.650	     1       0.01      99.25
		      164     4.669	     1       0.01      99.26
		      165     4.674	     1       0.01      99.27
		      166     4.676	     1       0.01      99.28
		      167     4.685	     1       0.01      99.29
		      168     4.688	     1       0.01      99.30
		      169     4.698	     1       0.01      99.31
		      170     4.699	     1       0.01      99.32
		      171     4.724	     1       0.01      99.33
		      172     4.731	     1       0.01      99.33
		      173     4.743	     1       0.01      99.34
		      174     4.745	     1       0.01      99.35
		      175     4.746	     1       0.01      99.36
		      176     4.747	     1       0.01      99.37
		      177     4.751	     1       0.01      99.38
		      178     4.766	     1       0.01      99.39
		      179     4.766	     1       0.01      99.40
		      180     4.773	     1       0.01      99.40
		      181     4.792	     1       0.01      99.41
		      182     4.797	     1       0.01      99.42
		      183     4.802	     1       0.01      99.43
		      184     4.811	     1       0.01      99.44
		      185     4.836	     1       0.01      99.44
		      186     4.837	     1       0.01      99.45
		      187     4.848	     1       0.01      99.46
		      188     4.854	     1       0.01      99.46
		      189     4.858	     1       0.01      99.47
		      190     4.879	     1       0.01      99.48
		      191     4.907	     1       0.01      99.49
		      192     4.912	     1       0.01      99.49
		      193     4.919	     1       0.01      99.50
		      194     4.925	     1       0.01      99.50
		      195     4.929	     1       0.01      99.51
		      196     4.930	     1       0.01      99.52
		      197     4.953	     1       0.01      99.52
		      198     4.956	     1       0.01      99.53
		      199     4.960	     1       0.01      99.54
		      200     4.966	     1       0.01      99.54
		      201     4.974	     1       0.01      99.55
		      202     4.979	     1       0.01      99.55
		      203     4.993	     1       0.01      99.56
		      204     5.001	     1       0.01      99.57
		      205     5.002	     1       0.01      99.57
		      206     5.006	     1       0.01      99.58
		      207     5.010	     1       0.01      99.58
		      208     5.026	     1       0.01      99.59
		      209     5.027	     1       0.01      99.59
		      210     5.033	     1       0.01      99.60
		      211     5.033	     1       0.01      99.60
		      212     5.041	     1       0.01      99.61
		      213     5.046	     1       0.01      99.61
		      214     5.051	     1       0.01      99.62
		      215     5.052	     1       0.01      99.62
		      216     5.058	     1       0.01      99.63
		      217     5.067	     1       0.01      99.63
		      218     5.076	     1       0.00      99.64
		      219     5.077	     1       0.00      99.64
		      220     5.078	     1       0.00      99.65
		      221     5.079	     1       0.00      99.65
		      222     5.082	     1       0.00      99.66
		      223     5.104	     1       0.00      99.66
		      224     5.107	     1       0.00      99.67
		      225     5.112	     1       0.00      99.67
		      226     5.113	     1       0.00      99.68
		      227     5.116	     1       0.00      99.68
		      228     5.126	     1       0.00      99.69
		      229     5.154	     1       0.00      99.69
		      230     5.172	     1       0.00      99.70
		      231     5.208	     1       0.00      99.70
		      232     5.208	     1       0.00      99.70
		      233     5.226	     1       0.00      99.71
		      234     5.227	     1       0.00      99.71
		      235     5.227	     1       0.00      99.72
		      236     5.229	     1       0.00      99.72
		      237     5.235	     1       0.00      99.72
		      238     5.247	     1       0.00      99.73
		      239     5.250	     1       0.00      99.73
		      240     5.251	     1       0.00      99.73
		      241     5.252	     1       0.00      99.74
		      242     5.254	     1       0.00      99.74
		      243     5.257	     1       0.00      99.75
		      244     5.277	     1       0.00      99.75
		      245     5.278	     1       0.00      99.75
		      246     5.278	     1       0.00      99.76
		      247     5.278	     1       0.00      99.76
		      248     5.288	     1       0.00      99.76
		      249     5.297	     1       0.00      99.77
		      250     5.305	     1       0.00      99.77
		      251     5.316	     1       0.00      99.77
		      252     5.322	     1       0.00      99.78
		      253     5.328	     1       0.00      99.78
		      254     5.336	     1       0.00      99.78
		      255     5.340	     1       0.00      99.79
		      256     5.342	     1       0.00      99.79
		      257     5.355	     1       0.00      99.79
		      258     5.361	     1       0.00      99.80
		      259     5.362	     1       0.00      99.80
		      260     5.370	     1       0.00      99.80
		      261     5.384	     1       0.00      99.81
		      262     5.387	     1       0.00      99.81
		      263     5.388	     1       0.00      99.81
		      264     5.388	     1       0.00      99.81
		      265     5.392	     1       0.00      99.82
		      266     5.396	     1       0.00      99.82
		      267     5.414	     1       0.00      99.82
		      268     5.422	     1       0.00      99.83
		      269     5.429	     1       0.00      99.83
		      270     5.440	     1       0.00      99.83
		      271     5.454	     1       0.00      99.83
		      272     5.460	     1       0.00      99.84
		      273     5.460	     1       0.00      99.84
		      274     5.462	     1       0.00      99.84
		      275     5.477	     1       0.00      99.84
		      276     5.479	     1       0.00      99.85
		      277     5.490	     1       0.00      99.85
		      278     5.491	     1       0.00      99.85
		      279     5.519	     1       0.00      99.85
		      280     5.521	     1       0.00      99.86
		      281     5.526	     1       0.00      99.86
		      282     5.528	     1       0.00      99.86
		      283     5.540	     1       0.00      99.86
		      284     5.543	     1       0.00      99.87
		      285     5.543	     1       0.00      99.87
		      286     5.546	     1       0.00      99.87
		      287     5.553	     1       0.00      99.87
		      288     5.558	     1       0.00      99.87
		      289     5.561	     1       0.00      99.88
		      290     5.567	     1       0.00      99.88
		      291     5.592	     1       0.00      99.88
		      292     5.609	     1       0.00      99.88
		      293     5.609	     1       0.00      99.88
		      294     5.613	     1       0.00      99.89
		      295     5.625	     1       0.00      99.89
		      296     5.628	     1       0.00      99.89
		      297     5.637	     1       0.00      99.89
		      298     5.639	     1       0.00      99.89
		      299     5.640	     1       0.00      99.90
		      300     5.645	     1       0.00      99.90
		      301     5.657	     1       0.00      99.90
		      302     5.659	     1       0.00      99.90
		      303     5.665	     1       0.00      99.90
		      304     5.671	     1       0.00      99.91
		      305     5.671	     1       0.00      99.91
		      306     5.677	     1       0.00      99.91
		      307     5.683	     1       0.00      99.91
		      308     5.691	     1       0.00      99.91
		      309     5.692	     1       0.00      99.91
		      310     5.694	     1       0.00      99.92
		      311     5.705	     1       0.00      99.92
		      312     5.712	     1       0.00      99.92
		      313     5.717	     1       0.00      99.92
		      314     5.723	     1       0.00      99.92
		      315     5.724	     1       0.00      99.93
		      316     5.724	     1       0.00      99.93
		      317     5.725	     1       0.00      99.93
		      318     5.729	     1       0.00      99.93
		      319     5.745	     1       0.00      99.93
		      320     5.748	     1       0.00      99.93
		      321     5.761	     1       0.00      99.93
		      322     5.765	     1       0.00      99.94
		      323     5.775	     1       0.00      99.94
		      324     5.778	     1       0.00      99.94
		      325     5.782	     1       0.00      99.94
		      326     5.788	     1       0.00      99.94
		      327     5.788	     1       0.00      99.94
		      328     5.790	     1       0.00      99.95
		      329     5.793	     1       0.00      99.95
		      330     5.801	     1       0.00      99.95
		      331     5.802	     1       0.00      99.95
		      332     5.809	     1       0.00      99.95
		      333     5.812	     1       0.00      99.95
		      334     5.812	     1       0.00      99.95
		      335     5.814	     1       0.00      99.96
		      336     5.818	     1       0.00      99.96
		      337     5.820	     1       0.00      99.96
		      338     5.826	     1       0.00      99.96
		      339     5.827	     1       0.00      99.96
		      340     5.838	     1       0.00      99.96
		      341     5.844	     1       0.00      99.96
		      342     5.847	     1       0.00      99.97
		      343     5.858	     1       0.00      99.97
		      344     5.866	     1       0.00      99.97
		      345     5.867	     1       0.00      99.97
		      346     5.878	     1       0.00      99.97
		      347     5.881	     1       0.00      99.97
		      348     5.891	     1       0.00      99.97
		      349     5.895	     1       0.00      99.97
		      350     5.896	     1       0.00      99.98
		      351     5.899	     1       0.00      99.98
		      352     5.901	     1       0.00      99.98
		      353     5.910	     1       0.00      99.98
		      354     5.911	     1       0.00      99.98
		      355     5.913	     1       0.00      99.98
		      356     5.916	     1       0.00      99.98
		      357     5.920	     1       0.00      99.98
		      358     5.928	     1       0.00      99.99
		      359     5.934	     1       0.00      99.99
		      360     5.934	     1       0.00      99.99
		      361     5.957	     1       0.00      99.99
		      362     5.958	     1       0.00      99.99
		      363     5.960	     1       0.00      99.99
		      364     5.968	     1       0.00      99.99
		      365     5.974	     1       0.00      99.99
		      366     5.977	     1       0.00      99.99
		      367     5.978	     1       0.00     100.00
		      368     5.979	     1       0.00     100.00
		      369     5.983	     1       0.00     100.00
		      370     5.983	     1       0.00     100.00
		      371     5.983	     1       0.00     100.00

		Conformers below 3 kcal/mol: 51
		Lowest energy conformer    : -39.814317 Eh
		Sconf at 298.15 K          :  6.59 cal/(molK)
		Gconf at 298.15 K          : -0.79 kcal/mol

		Writing final ensemble to r.finalensemble.xyz

--------------------------------
SUGGESTED CITATIONS FOR THIS RUN
--------------------------------

Below you find a list of papers that are relevant to this ORCA run
We neither can nor want to force you to cite these papers, but we appreciate if you do
You receive ORCA, which is the product of decades of hard work by many enthusiastic individuals, for free
The only thing we kindly ask in return is that you cite our papers,
We deeply appreciate it, if you show your appreciation for ORCA by not just citing the generic ORCA reference.

Please note that relegating all ORCA citations to the supporting information does *not* help us.
SI sections are not indexed - citations you put there will not count into any citation statistics
But we need these citations in order to attract the funding resources that allow us to do what we are doing

Therefore, if you are a happy ORCA user, please consider citing a few of the papers listed below in the main body of your paper

In addition to the list printed below, the program has created the file r.bibtex that contains the list in bibtex format
You can import this file easily into all common literature databanks and citation aid programs


List of essential papers. We consider these as the minimum necessary citations

  1. Bannwarth, C.; Ehlert, S.; Grimme, S.
     GFN2-xTB—An Accurate and Broadly Parametrized Self-Consistent Tight-Binding Quantum Chemical Method with Multipole Electrostatics and Density-Dependent Dispersion Contributions
     J. Chem. Theory Comput. 2019 15(3), 1652-1671
     doi.org/10.1021/acs.jctc.8b01176
  2. Neese, F.
     Software update: the ORCA program system, version 6.0
     WIRES Comput. Molec. Sci. 2025 15(1), e70019
     doi.org/10.1002/wcms.7019
  3. de Souza, B.
     GOAT: A Global Optimization Algorithm for Molecules and Atomic Clusters
     Angewandte Chemie 2025 64(18), e202500393
     doi.org/10.1002/anie.202500393

List of papers to cite with high priority. The work reported in these papers was absolutely
necessary for this run to complete.
Our perspective: the developers of density functionals and basis sets usually get cited in chemistry papers
Good! But without the algorithms to do something with them, the functionals or basis sets would not do anything.
Hence, in our opinion, the algorithm design and method developments papers are equally worthy of getting cited

  1. Bannwarth, C.; Caldeweyher, E.; Ehlert, S.; Hansen, A.; Pracht, P.; Seibert, J.; Spicher, S.; Grimme, S.
     Extended tight-binding quantum chemistry methods
     WIRES Comput. Molec. Sci. 2020 11(2), e1493
     doi.org/10.1002/wcms.1493

List of suggested additional citations. These are papers that are important in the 'surrounding' of 
of this run, or papers that preceded the highly important papers. If you like your results we are grateful for a citation.

  1. Neese, F.
     The ORCA program system
     WIRES Comput. Molec. Sci. 2012 2(1), 73-78
     doi.org/10.1002/wcms.81
  2. Neese, F.
     Software update: the ORCA program system, version 4.0
     WIRES Comput. Molec. Sci. 2018 8(1), 1-6
     doi.org/10.1002/wcms.1327
  3. Neese, F.; Wennmohs, F.; Becker, U.; Riplinger, C.
     The ORCA quantum chemistry program package
     J. Chem. Phys. 2020 152(22), 224108
     doi.org/10.1063/5.0004608
  4. Neese, F.
     Software update: The ORCA program system—Version 5.0
     WIRES Comput. Molec. Sci. 2022 12(1), e1606
     doi.org/10.1002/wcms.1606

List of optional additional citations

  1. Neese, F.
     Approximate second-order SCF convergence for spin unrestricted wavefunctions
     Chem. Phys. Lett. 2000 325(1-3), 93-98
     doi.org/10.1016/s0009-2614(00)00662-x

Timings for individual modules:

Sum of individual times          ...     3821.657 sec (=  63.694 min)
Geometry relaxation              ...        0.092 sec (=   0.002 min)   0.0 %
GOAT                             ...     3820.637 sec (=  63.677 min) 100.0 %
XTB module                       ...        0.928 sec (=   0.015 min)   0.0 %
                             ****ORCA TERMINATED NORMALLY****
TOTAL RUN TIME: 0 days 1 hours 3 minutes 41 seconds 778 msec
