
                                 *****************
                                 * O   R   C   A *
                                 *****************

                                            #,                                       
                                            ###                                      
                                            ####                                     
                                            #####                                    
                                            ######                                   
                                           ########,                                 
                                     ,,################,,,,,                         
                               ,,#################################,,                 
                          ,,##########################################,,             
                       ,#########################################, ''#####,          
                    ,#############################################,,   '####,        
                  ,##################################################,,,,####,       
                ,###########''''           ''''###############################       
              ,#####''   ,,,,##########,,,,          '''####'''          '####       
            ,##' ,,,,###########################,,,                        '##       
           ' ,,###''''                  '''############,,,                           
         ,,##''                                '''############,,,,        ,,,,,,###''
      ,#''                                            '''#######################'''  
     '                                                          ''''####''''         
             ,#######,   #######,   ,#######,      ##                                
            ,#'     '#,  ##    ##  ,#'     '#,    #''#        ,####,    ,#,          
            ##       ##  ##   ,#'  ##            #'  '#       #'       ,# #          
            ##       ##  #######   ##           ,######,      #####,      #          
            '#,     ,#'  ##    ##  '#,     ,#' ,#      #,     #,   #      #          
             '#######'   ##     ##  '#######'  #'      '#     '####' #    #          



                #########################################################
                #                        -***-                          #
                #          Department of theory and spectroscopy        #
                #                                                       #
                #                      Frank Neese                      #
                #                                                       #
                #     Directorship, Architecture, Infrastructure        #
                #                    SHARK, DRIVERS                     #
                #        Core code/Algorithms in most modules           #
                #                                                       #
                #        Max Planck Institute fuer Kohlenforschung      #
                #                Kaiser Wilhelm Platz 1                 #
                #                 D-45470 Muelheim/Ruhr                 #
                #                      Germany                          #
                #                                                       #
                #                  All rights reserved                  #
                #                        -***-                          #
                #########################################################


                         Program Version 6.1.0  -  RELEASE   -
                                (GIT: $679e74b$)
                          ($2025-06-10 18:02:51 +0200$)


 With contributions from (in alphabetic order):
[Max-Planck-Institut fuer Kohlenforschung]                               
  Daniel Aravena         : Magnetic Suceptibility                        
  Michael Atanasov       : Ab Initio Ligand Field Theory (pilot matlab implementation)
  Alexander A. Auer      : GIAO ZORA, VPT2 properties, NMR spectrum      
  Ute Becker             : All parallelization in ORCA, NUMFREQ, NUMCALC 
  Giovanni Bistoni       : ED, misc. LED, open-shell LED, HFLD           
  Dmytro Bykov           : pre 5.0 version of the SCF Hessian            
  Marcos Casanova-Páez   : Triplet and SCS-CIS(D). UHF-(DLPNO)-IP/EA/STEOM-CCSD. UHF-CVS-IP/STEOM-CCSD   
  Vijay G. Chilkuri      : MRCI spin determinant printing, contributions to CSF-ICE 
  Pauline Colinet        : FMM embedding                                 
  Dipayan Datta          : RHF DLPNO-CCSD density                        
  Achintya Kumar Dutta   : EOM-CC, STEOM-CC                              
  Nicolas Foglia         : Exact transition moments, OPA infrastructure, MCD improvements    
  Dmitry Ganyushin       : Spin-Orbit,Spin-Spin,Magnetic field MRCI      
  Miquel Garcia-Rates    : C-PCM and meta-GGA Hessian, CCSD/C-PCM, Gaussian charge scheme 
  Tiago L. C. Gouveia    : GS-ROHF, GS-ROCIS                             
  Yang Guo               : DLPNO-NEVPT2, F12-NEVPT2, CIM, IAO-localization        
  Andreas Hansen         : Spin unrestricted coupled pair/coupled cluster methods 
  Ingolf Harden          : AUTO-CI MPn and infrastructure                
  Benjamin Helmich-Paris : MC-RPA, TRAH-(SCF,CASSCF), AVAS, COSX integrals, SCF dyn. polar., MC-PDFT, srDFT 
  Lee Huntington         : MR-EOM, pCC                                   
  Robert Izsak           : Overlap fitted RIJCOSX, COSX-SCS-MP3, EOM     
  Riya Kayal             : Wick's Theorem for AUTO-CI, AUTO-CI UHF-CCSDT 
  Emily Kempfer          : AUTO-CI RHF CISDT and CCSDT, approximate NEVPT4
  Christian Kollmar      : KDIIS, OOCD, Brueckner-CCSD(T), CCSD density, CASPT2, CASPT2-K, improved NEVPT2 
  Axel Koslowski         : Symmetry handling                             
  Simone Kossmann        : meta-GGA functionals, TD-DFT gradient, OOMP2, (MP2 Hessian; deprecated post 5.0) 
  Lucas Lang             : DCDCAS, Hyperfine gauge corrections, ICE-SOC+SSC
  Marvin Lechner         : AUTO-CI (C++ implementation), FIC-MRCC        
  Spencer Leger          : CASSCF response                               
  Dagmar Lenk            : GEPOL surface, SMD, ORCA-2-JSON               
  Dimitrios Liakos       : Extrapolation schemes; Compound Job, Property file
  Dimitrios Manganas     : Further ROCIS development; embedding schemes. LFT, Crystal Embedding 
  Dimitrios Pantazis     : SARC Basis sets                               
  Anastasios Papadopoulos: AUTO-CI, single reference methods and gradients 
  Taras Petrenko         : pre 6.0 DFT Hessian and TD-DFT gradient,  ECA, NRVS 
  Petra Pikulova         : Analytic Raman intensities                    
  Peter Pinski           : DLPNO-MP2, DLPNO-MP2 Gradient                 
  Shashank Vittal Rao    : ES-AILFT, MagRelax                            
  Christoph Reimann      : Effective Core Potentials                     
  Marius Retegan         : Local ZFS, SOC                                
  Christoph Riplinger    : Optimizer, TS searches, QM/MM, DLPNO-CCSD(T), (RO)-DLPNO pert. Triples 
  Michael Roemelt        : Original ROCIS implementation, recursive CI coupling coefficients
  Masaaki Saitow         : Open-shell DLPNO-CCSD energy and density      
  Barbara Sandhoefer     : DKH picture change effects                    
  Yorick L. A. Schmerwitz: GMF and freeze-and-release deltaSCF, NEB S-IDPP initial path                    
  Kantharuban Sivalingam : CASSCF convergence/infrastructure, NEVPT2, NEVPT3, NEVPT4(SD), FIC-MRCI and CEPA variants
  Bernardo de Souza      : ESD, SOC TD-DFT                               
  Georgi L. Stoychev     : AutoAux, RI-MP2 NMR, DLPNO-MP2 response, X2C  
  Van Anh Tran           : RI-MP2 g-tensors                              
  Willem Van den Heuvel  : Paramagnetic NMR                              
  Zikuan Wang            : NOTCH, Electric field optimization            
  Frank Wennmohs         : Technical directorship and infrastructure     
  Hang Xu                : AUTO-CI-Response properties                   
                                                                         
[FACCTs GmbH]                                                            
  Markus Bursch, Nicolas Foglia, Miquel Garcia-Rates, Ingolf Harden, Hagen Neugebauer, Anastasios Papadopoulos, 
  Christoph Riplinger, Bernardo de Souza, Georgi L. Stoychev                                                    
                                                                 
  APM, various basis sets, CI-OPT, improved COSX, DLPNO-Multilevel,           
  DOCKER, DRACO, updates on ESD, Fragmentator, GOAT, IRC, LR-CPCM, L-BFGS, MBIS, meta-GGA TD-DFT gradient, ML-optimized integration grids, 
  MM, NACMEs, nearIR, NEB, NEB-TS, NL-DFT gradient (VV10), 2- and 3-layer-ONIOM, interface openCOSMO-RS, QMMM,   
  Crystal-QMMM, RESP, rigid body optimization, SF, symmetry and pop. for TD-DFT, various functionals, SOLVATOR                                   
                                                                         
[Other institutions]                                                     
  V. Asgeirsson          : NEB                                           
  Christoph Bannwarth    : sTDA-DFT, sTD-DFT, PBEh-3c, B97-3c, D3        
  Giovanni Bistoni       : ETS/NOCV, ADLD/ADEX, COVALED                  
  Martin Brehm           : Molecular dynamics                            
  Ronald Cardenas        : ETS/NOCV                                      
  Martina Colucci        : COVALED                                       
  Sebastian Ehlert       : rSCAN, r2SCAN, r2SCAN-3c, D4, dhf basis sets  
  Marvin Friede          : D4 for Fr, Ra, Ac-Lr                          
  Lars Goerigk           : TD-DFT with DH, B97 family of functionals     
  Stefan Grimme          : VdW corrections, initial TS optimization, DFT functionals, gCP, sTDA/sTD-DF 
  Waldemar Hujo          : DFT-NL                                        
  H. Jonsson             : NEB                                           
  Holger Kruse           : gCP                                           
  Marcel Mueller         : wB97X-3c, vDZP basis set                      
  Hagen Neugebauer       : wr2SCAN, Native XTB                           
  Gianluca Regni         : ADLD/ADEX                                     
  Tobias Risthaus        : pre 6.0 range-separated hybrid DFT and stability analysis
  Lukas Wittmann         : regularized MP2, r2SCAN double-hybrids, wr2SCAN        
                                                                         
We gratefully acknowledge several colleagues who have allowed us to      
interface, adapt or use parts of their codes:                            
  Ed Valeev, F. Pavosevic, A. Kumar             : LibInt (2-el integral package), F12 methods 
  Garnet Chan, S. Sharma, J. Yang, R. Olivares  : DMRG                   
  Ulf Ekstrom                                   : XCFun DFT Library      
  Mihaly Kallay                                 : mrcc  (arbitrary order and MRCC methods)
  Frank Weinhold                                : gennbo (NPA and NBO analysis)           
  Simon Mueller                                 : openCOSMO-RS                            
  Christopher J. Cramer and Donald G. Truhlar   : smd solvation model                     
  S Lehtola, MJT Oliveira, MAL Marques          : LibXC Library                           
  Liviu Ungur et al                             : ANISO software                          


 Your calculation uses the libint2 library for the computation of 2-el integrals
 For citations please refer to: http://libint.valeyev.net

 Your ORCA version has been built with support for libXC version: 7.0.0
 For citations please refer to: https://libxc.gitlab.io

 This ORCA versions uses:
   CBLAS   interface :  Fast vector & matrix operations
   LAPACKE interface :  Fast linear algebra routines
   SCALAPACK package :  Parallel linear algebra routines
   Shared memory     :  Shared parallel matrices
   BLAS/LAPACK       :  OpenBLAS 0.3.29  USE64BITINT DYNAMIC_ARCH NO_AFFINITY Haswell SINGLE_THREADED
        Core in use  :  Haswell
   Copyright (c) 2011-2014, The OpenBLAS Project


  ***********************************
  * Starting time: Sat Aug 16 15:52:03 2025
  * Host name:     CHEMLAB02
  * Process ID:    1906847
  * Working dir.:  /home/vivek/mm-project/vivek/xtb-goat/MP2/a/5
  ***********************************



***************************************
The coordinates will be read from file: /home/vivek/mm-project/vivek/xtb-goat/xtb-goat/a/A_CONF/5.xyz
***************************************


================================================================================

----- Orbital basis set information -----
Your calculation utilizes the basis: 6-31G**
   H-He, Li-Ne : W. J. Hehre, R. Ditchfield and J.A. Pople, J. Chem. Phys. 56, 2257 (1972).
                 Note: He and Ne are unpublished basis sets taken from the Gaussian program.
                 Note: Li and B from J. D. Dill and J. A. Pople, J. Chem. Phys. 62, 2921 (1975).
   Na - Ar     : M. M. Francl, W. J. Pietro, W. J. Hehre, J. S. Binkley, M. S. Gordon, 
                 D. J. DeFrees and J. A. Pople, J. Chem. Phys. 77, 3654 (1982).
   K - Zn      : V. A. Rassolov, J. A. Pople, M. A. Ratner, and T. L. Windus, J. Chem. Phys. 109, 1223 (1998).

================================================================================
                                        WARNINGS
                       Please study these warnings very carefully!
================================================================================


WARNING: No MP2 level density has been requested!
         To calculate MP2 level properties use
         %mp2 Density relaxed end
         or
         %mp2 Density unrelaxed end

WARNING: Post HF methods need fully converged wavefunctions
  ===> : Setting SCFConvForced true
         You can overwrite this default with %scf ConvForced false 


================================================================================
                                       INPUT FILE
================================================================================
NAME = 5.inp
|  1> ! MP2 6-31G** 
|  2> 
|  3> * xyzfile 0 1 /home/vivek/mm-project/vivek/xtb-goat/xtb-goat/a/A_CONF/5.xyz
|  4> 
|  5>                          ****END OF INPUT****
================================================================================

                       ****************************
                       * Single Point Calculation *
                       ****************************

---------------------------------
CARTESIAN COORDINATES (ANGSTROEM)
---------------------------------
  C     -4.756615    0.669171   -1.827477
  O     -4.966392    1.818114   -2.090026
  O     -3.587185    0.221083   -1.382421
  C     -5.827010   -0.435985   -1.941375
  H     -3.665923   -0.751744   -1.265421
  C     -6.724371   -0.189689   -3.152691
  H     -7.099768    0.828836   -3.120598
  N     -5.143094   -1.727602   -1.926420
  H     -6.155424   -0.315545   -4.072573
  H     -7.564857   -0.880800   -3.159157
  H     -6.425010   -0.362509   -1.024121
  H     -5.772167   -2.472904   -1.652982
  H     -4.797906   -1.945998   -2.857162

----------------------------
CARTESIAN COORDINATES (A.U.)
----------------------------
  NO LB      ZA    FRAG     MASS         X           Y           Z
   0 C     6.0000    0    12.011   -8.988699    1.264550   -3.453432
   1 O     8.0000    0    15.999   -9.385121    3.435738   -3.949577
   2 O     8.0000    0    15.999   -6.778797    0.417786   -2.612396
   3 C     6.0000    0    12.011  -11.011453   -0.823892   -3.668667
   4 H     1.0000    0     1.008   -6.927591   -1.420590   -2.391299
   5 C     6.0000    0    12.011  -12.707220   -0.358460   -5.957722
   6 H     1.0000    0     1.008  -13.416617    1.566274   -5.897075
   7 N     7.0000    0    14.007   -9.719039   -3.264695   -3.640406
   8 H     1.0000    0     1.008  -11.632066   -0.596294   -7.696047
   9 H     1.0000    0     1.008  -14.295508   -1.664471   -5.969942
  10 H     1.0000    0     1.008  -12.141509   -0.685043   -1.935308
  11 H     1.0000    0     1.008  -10.907815   -4.673111   -3.123684
  12 H     1.0000    0     1.008   -9.066729   -3.677403   -5.399254

--------------------------------
INTERNAL COORDINATES (ANGSTROEM)
--------------------------------
 C      0   0   0     0.000000000000     0.00000000     0.00000000
 O      1   0   0     1.197083627916     0.00000000     0.00000000
 O      1   2   0     1.329069050244   123.45085987     0.00000000
 C      1   2   3     1.542753687488   123.35105102   178.56137859
 H      3   1   2     0.982995466286   107.63994481   181.41280094
 C      4   1   2     1.527482968625   110.52666623    37.04273608
 H      6   4   1     1.085977340438   109.32156267   308.50542927
 N      4   1   2     1.461588111080   107.91668124   163.80949538
 H      6   4   1     1.088909204757   110.14084580    67.38575894
 H      6   4   1     1.088160146454   110.85883802   188.07341668
 H      4   1   2     1.097432069767   105.56916452   278.86416435
 H      8   4   1     1.012904464613   111.24705153   158.76016393
 H      8   4   1     1.016431105128   109.84154648   277.60964793

---------------------------
INTERNAL COORDINATES (A.U.)
---------------------------
 C      0   0   0     0.000000000000     0.00000000     0.00000000
 O      1   0   0     2.262160216162     0.00000000     0.00000000
 O      1   2   0     2.511576518032   123.45085987     0.00000000
 C      1   2   3     2.915381961450   123.35105102   178.56137859
 H      3   1   2     1.857592222167   107.63994481   181.41280094
 C      4   1   2     2.886524484930   110.52666623    37.04273608
 H      6   4   1     2.052199761072   109.32156267   308.50542927
 N      4   1   2     2.762001250536   107.91668124   163.80949538
 H      6   4   1     2.057740181696   110.14084580    67.38575894
 H      6   4   1     2.056324666645   110.85883802   188.07341668
 H      4   1   2     2.073846062442   105.56916452   278.86416435
 H      8   4   1     1.914112037944   111.24705153   158.76016393
 H      8   4   1     1.920776422691   109.84154648   277.60964793

---------------------
BASIS SET INFORMATION
---------------------
There are 4 groups of distinct atoms

 Group   1 Type C   : 10s4p1d contracted to 3s2p1d pattern {631/31/1}
 Group   2 Type O   : 10s4p1d contracted to 3s2p1d pattern {631/31/1}
 Group   3 Type H   : 4s1p contracted to 2s1p pattern {31/1}
 Group   4 Type N   : 10s4p1d contracted to 3s2p1d pattern {631/31/1}

Atom   0C    basis set group =>   1
Atom   1O    basis set group =>   2
Atom   2O    basis set group =>   2
Atom   3C    basis set group =>   1
Atom   4H    basis set group =>   3
Atom   5C    basis set group =>   1
Atom   6H    basis set group =>   3
Atom   7N    basis set group =>   4
Atom   8H    basis set group =>   3
Atom   9H    basis set group =>   3
Atom  10H    basis set group =>   3
Atom  11H    basis set group =>   3
Atom  12H    basis set group =>   3
------------------------------------------------------------------------------
                             ORCA STARTUP CALCULATIONS
------------------------------------------------------------------------------
------------------------------------------------------------------------------
                   ___                                                        
                  /   \      - P O W E R E D   B Y -                         
                 /     \                                                     
                 |  |  |   _    _      __       _____    __    __             
                 |  |  |  | |  | |    /  \     |  _  \  |  |  /  |          
                  \  \/   | |  | |   /    \    | | | |  |  | /  /          
                 / \  \   | |__| |  /  /\  \   | |_| |  |  |/  /          
                |  |  |   |  __  | /  /__\  \  |    /   |      \           
                |  |  |   | |  | | |   __   |  |    \   |  |\   \          
                \     /   | |  | | |  |  |  |  | |\  \  |  | \   \       
                 \___/    |_|  |_| |__|  |__|  |_| \__\ |__|  \__/        
                                                                              
                      - O R C A' S   B I G   F R I E N D -                    
                                      &                                       
                       - I N T E G R A L  F E E D E R -                       
                                                                              
 v1 FN, 2020, v2 2021, v3 2022-2024                                           
------------------------------------------------------------------------------


----------------------
SHARK INTEGRAL PACKAGE
----------------------

Number of atoms                             ...     13
Number of basis functions                   ...    119
Number of shells                            ...     57
Maximum angular momentum                    ...      2
Integral batch strategy                     ... SHARK/LIBINT Hybrid
RI-J (if used) integral strategy            ... SPLIT-RIJ (Revised 2003 algorithm where possible)
Printlevel                                  ...      1
Contraction scheme used                     ... SEGMENTED contraction
Prescreening option                         ... SCHWARTZ
   Thresh                                   ... 1.000e-10
   Tcut                                     ... 1.000e-11
   Tpresel                                  ... 1.000e-11 
Coulomb Range Separation                    ... NOT USED
Exchange Range Separation                   ... NOT USED
Multipole approximations                    ... NOT USED
Finite Nucleus Model                        ... NOT USED
CABS basis                                  ... NOT available
Auxiliary Coulomb fitting basis             ... NOT available
Auxiliary J/K fitting basis                 ... NOT available
Auxiliary Correlation fitting basis         ... NOT available
Auxiliary 'external' fitting basis          ... NOT available

Checking pre-screening integrals            ... done (  0.0 sec) Dimension = 57
   => SHARK Basis and OBASIS are compatible. Storing Pre-screening
Shell pair information
Shell pair cut-off parameter TPreSel        ...   1.0e-11
Total number of shell pairs                 ...      1653
Shell pairs after pre-screening             ...      1590
Total number of primitive shell pairs       ...      8022
Primitive shell pairs kept                  ...      5519
          la=0 lb=0:    505 shell pairs
          la=1 lb=0:    580 shell pairs
          la=1 lb=1:    184 shell pairs
          la=2 lb=0:    188 shell pairs
          la=2 lb=1:    112 shell pairs
          la=2 lb=2:     21 shell pairs

Checking whether 4 symmetric matrices of dimension 119 fit in memory
:Max Core in MB      =   4096.00
 MB in use           =      3.41
 MB left             =   4092.59
 MB needed           =      0.22
 Data fit in memory  = YES
Calculating Nuclear repulsion               ... done (  0.0 sec) ENN=    251.323939742135 Eh

Diagonalization of the overlap matrix:
Smallest eigenvalue                        ... 3.452e-03
Time for diagonalization                   ...    0.001 sec
Threshold for overlap eigenvalues          ... 1.000e-07
Number of eigenvalues below threshold      ... 0
Time for construction of square roots      ...    0.000 sec
Total time needed                          ...    0.001 sec

-------------------
DFT GRID GENERATION
-------------------

General Integration Accuracy     IntAcc      ... 4.388
Radial Grid Type                 RadialGrid  ... OptM3 with GC (2021)
Angular Grid (max. ang.)         AngularGrid ... 4 (Lebedev-302)
Angular grid pruning method      GridPruning ... 4 (adaptive)
Weight generation scheme         WeightScheme... mBecke (2022)
Basis function cutoff            BFCut       ... 1.0000e-10
Integration weight cutoff        WCut        ... 1.0000e-14
Partially contracted basis set               ... off
Rotationally invariant grid construction     ... off
Angular grids for H and He will be reduced by one unit

Total number of grid points                  ...    58878
Total number of batches                      ...      926
Average number of points per batch           ...       63
Average number of grid points per atom       ...     4529
Grids setup in   0.2 sec
Initializing property integral containers    ... done (  0.0 sec)

SHARK setup successfully completed in   0.2 seconds

Maximum memory used throughout the entire STARTUP-calculation: 22.7 MB
-------------------------------------------------------------------------------
                                 ORCA GUESS
                   Start orbitals & Density for SCF / CASSCF
-------------------------------------------------------------------------------

------------
SCF SETTINGS
------------
Hamiltonian:
 Ab initio Hamiltonian  Method          .... Hartree-Fock(GTOs)


General Settings:
 Integral files         IntName         .... 5
 Hartree-Fock type      HFTyp           .... RHF
 Total Charge           Charge          ....    0
 Multiplicity           Mult            ....    1
 Number of Electrons    NEL             ....   48
 Basis Dimension        Dim             ....  119
 Nuclear Repulsion      ENuc            ....    251.3239397421 Eh

Convergence Acceleration:
 AO-DIIS                CNVDIIS         .... on
   Start iteration      DIISMaxIt       ....    12
   Startup error        DIISStart       ....  0.200000
   # of expansion vecs  DIISMaxEq       ....     5
   Bias factor          DIISBfac        ....   1.050
   Max. coefficient     DIISMaxC        ....  10.000
 MO-DIIS                CNVKDIIS        .... off
 Trust-Rad. Augm. Hess. CNVTRAH         .... auto
   Auto Start mean grad. ratio tolernc. ....  1.125000
   Auto Start start iteration           ....    50
   Auto Start num. interpolation iter.  ....    10
   Max. Number of Micro iterations      ....    24
   Max. Number of Macro iterations      .... Maxiter - #DIIS iter
   Number of Davidson start vectors     ....     2
   Converg. threshold    (grad. norm)   ....   5.000e-05
   Grad. Scal. Fac. for Micro threshold ....   0.100
   Minimum threshold for Micro iter.    ....   1.000e-02
   NR start threshold (gradient norm)   ....   1.000e-04
   Initial trust radius                 ....   0.400
   Minimum AH scaling param. (alpha)    ....   1.000
   Maximum AH scaling param. (alpha)    .... 1000.000
   Quad. conv. algorithm                .... NR
   White noise on init. David. guess    .... on
   Maximum white noise                  ....   0.010
   Pseudo random numbers                .... off
   Inactive MOs                         .... canonical
   Orbital update algorithm             .... Taylor
   Preconditioner                       .... Diag
   Full preconditioner red. dimension   ....   250
 SOSCF                 CNVSOSCF           .... on
   Start iteration     SOSCFMaxIt         ....   150
   Startup grad/error  SOSCFStart         ....  0.003300
   Hessian update      SOSCFHessUp        .... L-BFGS
   Autom. constraints  SOSCFAutoConstrain .... off
 Level Shifting         CNVShift        .... on
   Level shift para.    LevelShift      ....    0.2500
   Turn off err/grad.   ShiftErr        ....    0.0010
 Zerner damping         CNVZerner       .... off
 Static damping         CNVDamp         .... on
   Fraction old density DampFac         ....    0.7000
   Max. Damping (<1)    DampMax         ....    0.9800
   Min. Damping (>=0)   DampMin         ....    0.0000
   Turn off err/grad.   DampErr         ....    0.1000

SCF Procedure:
 Maximum # iterations   MaxIter         ....   125
 SCF integral mode      SCFMode         .... Direct
   Integral package                     .... SHARK and LIBINT hybrid scheme
 Reset frequency        DirectResetFreq ....    20
 Integral Threshold     Thresh          ....  1.000e-10 Eh
 Primitive CutOff       TCut            ....  1.000e-11 Eh

Convergence Tolerance:
 Convergence Check Mode ConvCheckMode   .... Total+1el-Energy
 Convergence forced     ConvForced      .... 1
 Energy Change          TolE            ....  1.000e-06 Eh
 1-El. energy change                    ....  1.000e-03 Eh
 Orbital Gradient       TolG            ....  5.000e-05
 Orbital Rotation angle TolX            ....  5.000e-05
 DIIS Error             TolErr          ....  1.000e-06

------------------------------
INITIAL GUESS: MODEL POTENTIAL
------------------------------
Loading Hartree-Fock densities                     ... done
Calculating cut-offs                               ... done
Initializing the effective Hamiltonian             ... done
Setting up the integral package (SHARK)            ... done
Starting the Coulomb interaction                   ... done (   0.0 sec)
Making the grid                                    ... done (   0.0 sec)
Mapping shells                                     ... done
Starting the XC term evaluation                    ... done (   0.0 sec)
Transforming the Hamiltonian                       ... done (   0.0 sec)
Diagonalizing the Hamiltonian                      ... done (   0.0 sec)
Back transforming the eigenvectors                 ... done (   0.0 sec)
Now organizing SCF variables                       ... done
                      ------------------
                      INITIAL GUESS DONE (   0.1 sec)
                      ------------------
             **** ENERGY FILE WAS UPDATED (5.en.tmp) ****
Finished Guess after   0.1 sec
Maximum memory used throughout the entire GUESS-calculation: 7.4 MB

-------------------------------------------------------------------------------------------
                                      ORCA LEAN-SCF
                              memory conserving SCF solver
-------------------------------------------------------------------------------------------

----------------------------------------D-I-I-S--------------------------------------------
Iteration    Energy (Eh)           Delta-E    RMSDP     MaxDP     DIISErr   Damp  Time(sec)
-------------------------------------------------------------------------------------------
               ***  Starting incremental Fock matrix formation  ***
    1    -321.5967462141601345     0.00e+00  3.17e-03  6.49e-02  2.61e-01  0.700   0.5
    2    -321.6993634059297165    -1.03e-01  2.34e-03  4.66e-02  1.59e-01  0.700   0.4
                               ***Turning on AO-DIIS***
    3    -321.7590631917333894    -5.97e-02  1.25e-03  2.13e-02  8.93e-02  0.700   0.5
    4    -321.7965961341728871    -3.75e-02  2.82e-03  4.80e-02  6.37e-02  0.000   0.4
    5    -321.8799133067262801    -8.33e-02  3.60e-04  7.17e-03  6.92e-03  0.000   0.5
    6    -321.8802825988665290    -3.69e-04  1.83e-04  3.06e-03  3.37e-03  0.000   0.4
                              *** Initializing SOSCF ***
---------------------------------------S-O-S-C-F--------------------------------------
Iteration    Energy (Eh)           Delta-E    RMSDP     MaxDP     MaxGrad    Time(sec)
--------------------------------------------------------------------------------------
    7    -321.8803722714180822    -8.97e-05  1.19e-04  2.41e-03  2.21e-03     0.4
               *** Restarting incremental Fock matrix formation ***
    8    -321.8804038391930362    -3.16e-05  6.02e-05  8.25e-04  5.42e-04     0.5
    9    -321.8804110984759745    -7.26e-06  6.43e-05  1.26e-03  3.30e-04     0.4
   10    -321.8804138920938840    -2.79e-06  1.00e-05  2.37e-04  7.51e-05     0.4
   11    -321.8804140285895983    -1.36e-07  3.91e-06  8.91e-05  4.03e-05     0.4
                 **** Energy Check signals convergence ****

               *****************************************************
               *                     SUCCESS                       *
               *           SCF CONVERGED AFTER  11 CYCLES          *
               *****************************************************

             **** ENERGY FILE WAS UPDATED (5.en.tmp) ****

----------------
TOTAL SCF ENERGY
----------------

Total Energy       :       -321.88041406379807 Eh           -8758.81136 eV

Components:
Nuclear Repulsion  :        251.32393974213485 Eh            6838.87208 eV
Electronic Energy  :       -573.20435380593290 Eh          -15597.68344 eV
One Electron Energy:       -937.95440210712809 Eh          -25523.03685 eV
Two Electron Energy:        364.75004830119519 Eh            9925.35341 eV

Virial components:
Potential Energy   :       -643.33575157266068 Eh          -17506.05579 eV
Kinetic Energy     :        321.45533750886261 Eh            8747.24443 eV
Virial Ratio       :          2.00132235027805

---------------
SCF CONVERGENCE
---------------

  Last Energy change         ...    1.3650e-07  Tolerance :   1.0000e-06
  Last MAX-Density change    ...    8.9078e-05  Tolerance :   1.0000e-05
  Last RMS-Density change    ...    3.9098e-06  Tolerance :   1.0000e-06
  Last DIIS Error            ...    2.2062e-03  Tolerance :   1.0000e-06
  Last Orbital Gradient      ...    4.0274e-05  Tolerance :   5.0000e-05
  Last Orbital Rotation      ...    2.6720e-05  Tolerance :   5.0000e-05


----------------
ORBITAL ENERGIES
----------------

  NO   OCC          E(Eh)            E(eV) 
   0   2.0000     -20.593638      -560.3814 
   1   2.0000     -20.537182      -558.8451 
   2   2.0000     -15.587343      -424.1532 
   3   2.0000     -11.372771      -309.4688 
   4   2.0000     -11.289443      -307.2014 
   5   2.0000     -11.232892      -305.6625 
   6   2.0000      -1.449944       -39.4550 
   7   2.0000      -1.353205       -36.8226 
   8   2.0000      -1.225008       -33.3342 
   9   2.0000      -1.026039       -27.9199 
  10   2.0000      -0.899070       -24.4649 
  11   2.0000      -0.802713       -21.8429 
  12   2.0000      -0.744788       -20.2667 
  13   2.0000      -0.681289       -18.5388 
  14   2.0000      -0.655673       -17.8418 
  15   2.0000      -0.625585       -17.0230 
  16   2.0000      -0.612883       -16.6774 
  17   2.0000      -0.589336       -16.0366 
  18   2.0000      -0.568652       -15.4738 
  19   2.0000      -0.527729       -14.3602 
  20   2.0000      -0.525520       -14.3001 
  21   2.0000      -0.459311       -12.4985 
  22   2.0000      -0.451612       -12.2890 
  23   2.0000      -0.415526       -11.3070 
  24   0.0000       0.172635         4.6976 
  25   0.0000       0.219601         5.9757 
  26   0.0000       0.251662         6.8481 
  27   0.0000       0.271503         7.3880 
  28   0.0000       0.289327         7.8730 
  29   0.0000       0.306095         8.3293 
  30   0.0000       0.319367         8.6904 
  31   0.0000       0.324182         8.8214 
  32   0.0000       0.393702        10.7132 
  33   0.0000       0.409216        11.1353 
  34   0.0000       0.453638        12.3441 
*Only the first 10 virtual orbitals were printed.

                    ********************************
                    * MULLIKEN POPULATION ANALYSIS *
                    ********************************

-----------------------
MULLIKEN ATOMIC CHARGES
-----------------------
   0 C :    0.828641
   1 O :   -0.572870
   2 O :   -0.648273
   3 C :   -0.073044
   4 H :    0.404888
   5 C :   -0.329944
   6 H :    0.165301
   7 N :   -0.760209
   8 H :    0.116773
   9 H :    0.114867
  10 H :    0.169027
  11 H :    0.296218
  12 H :    0.288625
Sum of atomic charges:   -0.0000000

--------------------------------
MULLIKEN REDUCED ORBITAL CHARGES
--------------------------------
  0 C s       :     2.933218  s :     2.933218
      pz      :     0.637780  p :     2.088674
      px      :     0.678975
      py      :     0.771918
      dz2     :     0.013755  d :     0.149466
      dxz     :     0.017399
      dyz     :     0.025968
      dx2y2   :     0.037268
      dxy     :     0.055077

  1 O s       :     3.875772  s :     3.875772
      pz      :     1.483432  p :     4.663870
      px      :     1.790571
      py      :     1.389867
      dz2     :     0.003632  d :     0.033228
      dxz     :     0.000536
      dyz     :     0.012421
      dx2y2   :     0.008583
      dxy     :     0.008056

  2 O s       :     3.842550  s :     3.842550
      pz      :     1.775124  p :     4.778282
      px      :     1.544226
      py      :     1.458932
      dz2     :     0.003994  d :     0.027441
      dxz     :     0.006446
      dyz     :     0.000737
      dx2y2   :     0.011910
      dxy     :     0.004354

  3 C s       :     3.218600  s :     3.218600
      pz      :     1.057630  p :     2.786215
      px      :     0.952345
      py      :     0.776240
      dz2     :     0.014558  d :     0.068229
      dxz     :     0.014331
      dyz     :     0.007108
      dx2y2   :     0.010160
      dxy     :     0.022073

  4 H s       :     0.551535  s :     0.551535
      pz      :     0.008371  p :     0.043577
      px      :     0.006783
      py      :     0.028422

  5 C s       :     3.254484  s :     3.254484
      pz      :     0.948110  p :     3.034502
      px      :     0.997792
      py      :     1.088601
      dz2     :     0.010846  d :     0.040958
      dxz     :     0.012138
      dyz     :     0.001588
      dx2y2   :     0.005768
      dxy     :     0.010617

  6 H s       :     0.821575  s :     0.821575
      pz      :     0.001771  p :     0.013125
      px      :     0.002515
      py      :     0.008839

  7 N s       :     3.617490  s :     3.617490
      pz      :     1.435048  p :     4.109934
      px      :     1.526997
      py      :     1.147889
      dz2     :     0.011589  d :     0.032784
      dxz     :     0.001997
      dyz     :     0.003243
      dx2y2   :     0.002704
      dxy     :     0.013251

  8 H s       :     0.870508  s :     0.870508
      pz      :     0.007204  p :     0.012719
      px      :     0.003565
      py      :     0.001951

  9 H s       :     0.872437  s :     0.872437
      pz      :     0.001762  p :     0.012696
      px      :     0.006315
      py      :     0.004619

 10 H s       :     0.818594  s :     0.818594
      pz      :     0.007006  p :     0.012379
      px      :     0.004086
      py      :     0.001287

 11 H s       :     0.677640  s :     0.677640
      pz      :     0.006618  p :     0.026143
      px      :     0.009230
      py      :     0.010294

 12 H s       :     0.685829  s :     0.685829
      pz      :     0.014068  p :     0.025546
      px      :     0.007592
      py      :     0.003886



                     *******************************
                     * LOEWDIN POPULATION ANALYSIS *
                     *******************************

----------------------
LOEWDIN ATOMIC CHARGES
----------------------
   0 C :    0.228180
   1 O :   -0.289747
   2 O :   -0.209780
   3 C :   -0.037759
   4 H :    0.193206
   5 C :   -0.182277
   6 H :    0.089994
   7 N :   -0.286653
   8 H :    0.067192
   9 H :    0.064779
  10 H :    0.087777
  11 H :    0.139438
  12 H :    0.135651

-------------------------------
LOEWDIN REDUCED ORBITAL CHARGES
-------------------------------
  0 C s       :     2.843307  s :     2.843307
      pz      :     0.701431  p :     2.603896
      px      :     0.888850
      py      :     1.013615
      dz2     :     0.028191  d :     0.324617
      dxz     :     0.037790
      dyz     :     0.053031
      dx2y2   :     0.081862
      dxy     :     0.123743

  1 O s       :     3.542183  s :     3.542183
      pz      :     1.460839  p :     4.689938
      px      :     1.749287
      py      :     1.479812
      dz2     :     0.007065  d :     0.057626
      dxz     :     0.001133
      dyz     :     0.015727
      dx2y2   :     0.020420
      dxy     :     0.013281

  2 O s       :     3.460146  s :     3.460146
      pz      :     1.733193  p :     4.700307
      px      :     1.557408
      py      :     1.409707
      dz2     :     0.006188  d :     0.049327
      dxz     :     0.009764
      dyz     :     0.001951
      dx2y2   :     0.022902
      dxy     :     0.008522

  3 C s       :     2.878897  s :     2.878897
      pz      :     1.073514  p :     3.022671
      px      :     1.027326
      py      :     0.921830
      dz2     :     0.027496  d :     0.136191
      dxz     :     0.027041
      dyz     :     0.014353
      dx2y2   :     0.021246
      dxy     :     0.046054

  4 H s       :     0.674550  s :     0.674550
      pz      :     0.026417  p :     0.132244
      px      :     0.022617
      py      :     0.083210

  5 C s       :     2.910933  s :     2.910933
      pz      :     1.037120  p :     3.197872
      px      :     1.059502
      py      :     1.101251
      dz2     :     0.019718  d :     0.073472
      dxz     :     0.022725
      dyz     :     0.003385
      dx2y2   :     0.009807
      dxy     :     0.017836

  6 H s       :     0.868024  s :     0.868024
      pz      :     0.006341  p :     0.041982
      px      :     0.008926
      py      :     0.026716

  7 N s       :     3.187275  s :     3.187275
      pz      :     1.398418  p :     4.040385
      px      :     1.482565
      py      :     1.159402
      dz2     :     0.016462  d :     0.058994
      dxz     :     0.004747
      dyz     :     0.008049
      dx2y2   :     0.007692
      dxy     :     0.022044

  8 H s       :     0.893020  s :     0.893020
      pz      :     0.021258  p :     0.039788
      px      :     0.011450
      py      :     0.007080

  9 H s       :     0.895357  s :     0.895357
      pz      :     0.006345  p :     0.039863
      px      :     0.018922
      py      :     0.014597

 10 H s       :     0.872477  s :     0.872477
      pz      :     0.021156  p :     0.039746
      px      :     0.013222
      py      :     0.005368

 11 H s       :     0.777473  s :     0.777473
      pz      :     0.020509  p :     0.083089
      px      :     0.030828
      py      :     0.031752

 12 H s       :     0.782227  s :     0.782227
      pz      :     0.044542  p :     0.082123
      px      :     0.024402
      py      :     0.013179



                      *****************************
                      * MAYER POPULATION ANALYSIS *
                      *****************************

  NA   - Mulliken gross atomic population
  ZA   - Total nuclear charge
  QA   - Mulliken gross atomic charge
  VA   - Mayer's total valence
  BVA  - Mayer's bonded valence
  FA   - Mayer's free valence

  ATOM       NA         ZA         QA         VA         BVA        FA
  0 C      5.1714     6.0000     0.8286     3.7285     3.7285    -0.0000
  1 O      8.5729     8.0000    -0.5729     1.9107     1.9107     0.0000
  2 O      8.6483     8.0000    -0.6483     1.8389     1.8389    -0.0000
  3 C      6.0730     6.0000    -0.0730     3.7214     3.7214     0.0000
  4 H      0.5951     1.0000     0.4049     0.8574     0.8574    -0.0000
  5 C      6.3299     6.0000    -0.3299     3.8350     3.8350    -0.0000
  6 H      0.8347     1.0000     0.1653     0.9494     0.9494    -0.0000
  7 N      7.7602     7.0000    -0.7602     2.7378     2.7378     0.0000
  8 H      0.8832     1.0000     0.1168     0.9543     0.9543     0.0000
  9 H      0.8851     1.0000     0.1149     0.9527     0.9527     0.0000
 10 H      0.8310     1.0000     0.1690     0.9361     0.9361    -0.0000
 11 H      0.7038     1.0000     0.2962     0.8959     0.8959     0.0000
 12 H      0.7114     1.0000     0.2886     0.8963     0.8963    -0.0000

  Mayer bond orders larger than 0.100000
B(  0-C ,  1-O ) :   1.8332 B(  0-C ,  2-O ) :   1.0100 B(  0-C ,  3-C ) :   0.9332 
B(  2-O ,  4-H ) :   0.7820 B(  3-C ,  5-C ) :   0.9700 B(  3-C ,  7-N ) :   0.9046 
B(  3-C , 10-H ) :   0.9568 B(  5-C ,  6-H ) :   0.9564 B(  5-C ,  8-H ) :   0.9713 
B(  5-C ,  9-H ) :   0.9726 B(  7-N , 11-H ) :   0.9007 B(  7-N , 12-H ) :   0.8982 


-------
TIMINGS
-------

Total SCF time: 0 days 0 hours 0 min 5 sec 

Total time                  ....       5.101 sec
Sum of individual times     ....       4.757 sec  ( 93.3%)

SCF preparation             ....       0.013 sec  (  0.3%)
Fock matrix formation       ....       4.697 sec  ( 92.1%)
  Startup                   ....       0.000 sec  (  0.0% of F)
  Coulomb+Exchange Fock     ....       5.034 sec  (107.2% of F)
Diagonalization             ....       0.000 sec  (  0.0%)
Density matrix formation    ....       0.013 sec  (  0.2%)
Total Energy calculation    ....       0.000 sec  (  0.0%)
Population analysis         ....       0.001 sec  (  0.0%)
Orbital Transformation      ....       0.002 sec  (  0.0%)
Orbital Orthonormalization  ....       0.000 sec  (  0.0%)
DIIS solution               ....       0.011 sec  (  0.2%)
SOSCF solution              ....       0.017 sec  (  0.3%)
Finished LeanSCF after   5.1 sec

Maximum memory used throughout the entire LEANSCF-calculation: 10.5 MB

------------------------------------------------------------------------------
                                ORCA  MP2 
------------------------------------------------------------------------------

Freezing NCore=12 chemical core electrons

----------
MP2 ENERGY (disk based algorithm)
----------

Dimension of the basis                      ...  119
Memory devoted to MP2                       ... 4096 MB   
Data format for buffers                     ... DOUBLE
Compression type for matrix containers      ... UNCOMPRESSED

-------------------------
SHARK HALF TRANSFORMATION (Exchange order)
-------------------------

Number of basis functions                   ...    119
Number of operators                         ...      1
   Operator  0:    6-  23 (p-index in (p*|q*))
   Operator  0:    6-  23 (q-index in (p*|q*)
Integral generator used                     ... SHARK
Contraction scheme used                     ... SEGMENTED CONTRACTION
MaxCore in resort                           ...   4096 MB

Half transformed integrals for op=   0      ... 5.SHARK_MNPQ0.tmp
Resorted half transformed integrals         ... 5.KAO_aa.tmp

Half trafo (segmented) done. Total time =  2.5 sec. integrals=  2.4 sec trafo=  0.1 sec

----------------------
SHARK INTEGRAL SORTING (Exchange)
----------------------

Input container                             ... 5.SHARK_MNPQ0.tmp
Output container                            ... 5.KAO_aa.tmp
Range of AO-indices                         ...    0 -  118
Range of bra indices i                      ...    6 -   23
Range of ket indices j                      ...    6 -   23
Symmetric i,j range                         ... YES
Number of (i,j) pairs generated             ...  171
Max Core memory in MB                       ...   4096

Available core memory in MB                 ...   4091.01
MB needed for one item                      ...      0.11
Fixed MB needed                             ...      0.00
Number of items                             ...       171
Number of batches                           ...         1
Items treated per batch                     ...       171
Batch   0                                   ...      0-   170 (   171)
   => Closing output file and leaving
done (  0.0 sec)

SHARK half integral transformation done. Total time =  2.5 sec.


Finished integral transformation - now doing MP2 part

OPERATOR COMBINATION   0   0: ij=(  6.. 23,  6.. 23)
  Internal MO   8
  Internal MO  11
  Internal MO  14
  Internal MO  17
  Internal MO  20
  Internal MO  23
-----------------------------------------------
 MP2 CORRELATION ENERGY   :     -0.938055831 Eh
-----------------------------------------------


-------
TIMINGS
-------
Total time                :    2.563 sec
Integral trafo            :    2.543 sec ( 99.2%)
K(i,j)                    :    0.015 sec (  0.6%)
T(i,j)                    :    0.001 sec (  0.0%)

---------------------------------------
MP2 TOTAL ENERGY:     -322.818469895 Eh
---------------------------------------

Maximum memory used throughout the entire MP2-calculation: 29.8 MB

-------------------------   --------------------
FINAL SINGLE POINT ENERGY      -322.818469895132
-------------------------   --------------------


------------------------------------------------------------------------------
                              ORCA PROPERTY CALCULATIONS
------------------------------------------------------------------------------

GBWName                                 ... 5.gbw
Number of atoms                         ...     13
Number of basis functions               ...    119
Max core memory                         ...   4096 MB

Electric properties:
Dipole moment                           ... YES
Quadrupole moment                       ...  NO
Static polarizability (Dipole/Dipole)   ...  NO
Static polarizability (Dipole/Quad.)    ...  NO
Static polarizability (Quad./Quad.)     ...  NO
Static polarizability (Velocity)        ...  NO
Static hyperpolarizability              ...  NO

Atomic electric properties:
Dipole moment                           ...  NO
Quadrupole moment                       ...  NO
Static polarizability                   ...  NO

Choice of electric origin               ... Center of mass
Position of electric origin             ...    -9.726853     0.063656    -3.880731

General magnetic properties:
Magnetizability                         ...  NO

EPR properties:
g-Tensor (aka g-matrix)                 ...  NO
Zero-Field splitting spin-orbit         ...  NO
Zero-field splitting spin-spin          ...  NO
Hyperfine couplings                     ...  NO (   0 nuclei)
Quadrupole couplings                    ...  NO (   0 nuclei)
Contact density                         ...  NO (   0 nuclei)

NMR properties:
Chemical shifts                         ...  NO (   0 nuclei)
Spin-rotation constants                 ...  NO (   0 nuclei)
Spin-spin couplings                     ...  NO (   0 nuclei,    0 pairs)

Choice of magnetic origin               ... GIAO
Position of magnetic origin             ...     0.000000     0.000000     0.000000

Properties with geometric perturbations:
SCF Hessian                             ...  NO
IR spectrum                             ...  NO
VCD spectrum                            ...  NO
X-ray spectroscopy properties:
SCF XES/XAS/RIXS spectra                ...  NO

SCF SOC stabilization energy            ...  NO
Diagonal Born-Oppenheimer correction    ...  NO

-------------
DIPOLE MOMENT
-------------

Method             : SCF
Type of density    : Electron Density
Multiplicity       :   1
Irrep              :   0
Energy             :  -321.8804140637980709 Eh
Basis              : AO
                                X                 Y                 Z
Electronic contribution:      4.194597899       3.707296268       2.382131571
Nuclear contribution   :     -5.087715700      -5.737619647      -2.595091665
                        -----------------------------------------
Total Dipole Moment    :     -0.893117801      -2.030323379      -0.212960095
                        -----------------------------------------
Magnitude (a.u.)       :      2.228278356
Magnitude (Debye)      :      5.663833469



--------------------
Rotational spectrum 
--------------------
 
Rotational constants in cm-1:             0.163425             0.116921             0.072891 
Rotational constants in MHz :          4899.363801          3505.203408          2185.209137 

Dipole components along the rotational axes: 
x,y,z [a.u.] :     2.085943     0.779524     0.080039 
x,y,z [Debye]:     5.302047     1.981393     0.203444 

 

Dipole moment calculation done in   0.0 sec 

Maximum memory used throughout the entire PROP-calculation: 5.1 MB

--------------------------------
SUGGESTED CITATIONS FOR THIS RUN
--------------------------------

Below you find a list of papers that are relevant to this ORCA run
We neither can nor want to force you to cite these papers, but we appreciate if you do
You receive ORCA, which is the product of decades of hard work by many enthusiastic individuals, for free
The only thing we kindly ask in return is that you cite our papers,
We deeply appreciate it, if you show your appreciation for ORCA by not just citing the generic ORCA reference.

Please note that relegating all ORCA citations to the supporting information does *not* help us.
SI sections are not indexed - citations you put there will not count into any citation statistics
But we need these citations in order to attract the funding resources that allow us to do what we are doing

Therefore, if you are a happy ORCA user, please consider citing a few of the papers listed below in the main body of your paper

In addition to the list printed below, the program has created the file 5.bibtex that contains the list in bibtex format
You can import this file easily into all common literature databanks and citation aid programs


List of essential papers. We consider these as the minimum necessary citations

  1. Neese, F.
     Software update: the ORCA program system, version 6.0
     WIRES Comput. Molec. Sci. 2025 15(1), e70019
     doi.org/10.1002/wcms.7019

List of papers to cite with high priority. The work reported in these papers was absolutely
necessary for this run to complete.
Our perspective: the developers of density functionals and basis sets usually get cited in chemistry papers
Good! But without the algorithms to do something with them, the functionals or basis sets would not do anything.
Hence, in our opinion, the algorithm design and method developments papers are equally worthy of getting cited

  1. Neese, F.
     The SHARK Integral Generation and Digestion System
     J. Comp. Chem. 2022 44(3), 381
     doi.org/10.1002/jcc.26942

List of suggested additional citations. These are papers that are important in the 'surrounding' of 
of this run, or papers that preceded the highly important papers. If you like your results we are grateful for a citation.

  1. Neese, F.
     The ORCA program system
     WIRES Comput. Molec. Sci. 2012 2(1), 73-78
     doi.org/10.1002/wcms.81
  2. Neese, F.
     Software update: the ORCA program system, version 4.0
     WIRES Comput. Molec. Sci. 2018 8(1), 1-6
     doi.org/10.1002/wcms.1327
  3. Neese, F.; Wennmohs, F.; Becker, U.; Riplinger, C.
     The ORCA quantum chemistry program package
     J. Chem. Phys. 2020 152(22), 224108
     doi.org/10.1063/5.0004608
  4. Neese, F.
     Software update: The ORCA program system—Version 5.0
     WIRES Comput. Molec. Sci. 2022 12(1), e1606
     doi.org/10.1002/wcms.1606

List of optional additional citations

  1. Neese, F.
     Approximate second-order SCF convergence for spin unrestricted wavefunctions
     Chem. Phys. Lett. 2000 325(1-3), 93-98
     doi.org/10.1016/s0009-2614(00)00662-x

Timings for individual modules:

Sum of individual times          ...        8.071 sec (=   0.135 min)
Startup calculation              ...        0.236 sec (=   0.004 min)   2.9 %
SCF iterations                   ...        5.228 sec (=   0.087 min)  64.8 %
Property calculations            ...        0.022 sec (=   0.000 min)   0.3 %
MP2 module                       ...        2.585 sec (=   0.043 min)  32.0 %
                             ****ORCA TERMINATED NORMALLY****
TOTAL RUN TIME: 0 days 0 hours 0 minutes 8 seconds 106 msec
