
                                 *****************
                                 * O   R   C   A *
                                 *****************

                                            #,                                       
                                            ###                                      
                                            ####                                     
                                            #####                                    
                                            ######                                   
                                           ########,                                 
                                     ,,################,,,,,                         
                               ,,#################################,,                 
                          ,,##########################################,,             
                       ,#########################################, ''#####,          
                    ,#############################################,,   '####,        
                  ,##################################################,,,,####,       
                ,###########''''           ''''###############################       
              ,#####''   ,,,,##########,,,,          '''####'''          '####       
            ,##' ,,,,###########################,,,                        '##       
           ' ,,###''''                  '''############,,,                           
         ,,##''                                '''############,,,,        ,,,,,,###''
      ,#''                                            '''#######################'''  
     '                                                          ''''####''''         
             ,#######,   #######,   ,#######,      ##                                
            ,#'     '#,  ##    ##  ,#'     '#,    #''#        ,####,    ,#,          
            ##       ##  ##   ,#'  ##            #'  '#       #'       ,# #          
            ##       ##  #######   ##           ,######,      #####,      #          
            '#,     ,#'  ##    ##  '#,     ,#' ,#      #,     #,   #      #          
             '#######'   ##     ##  '#######'  #'      '#     '####' #    #          



                #########################################################
                #                        -***-                          #
                #          Department of theory and spectroscopy        #
                #                                                       #
                #                      Frank Neese                      #
                #                                                       #
                #     Directorship, Architecture, Infrastructure        #
                #                    SHARK, DRIVERS                     #
                #        Core code/Algorithms in most modules           #
                #                                                       #
                #        Max Planck Institute fuer Kohlenforschung      #
                #                Kaiser Wilhelm Platz 1                 #
                #                 D-45470 Muelheim/Ruhr                 #
                #                      Germany                          #
                #                                                       #
                #                  All rights reserved                  #
                #                        -***-                          #
                #########################################################


                         Program Version 6.1.0  -  RELEASE   -
                                (GIT: $679e74b$)
                          ($2025-06-10 18:02:51 +0200$)


 With contributions from (in alphabetic order):
[Max-Planck-Institut fuer Kohlenforschung]                               
  Daniel Aravena         : Magnetic Suceptibility                        
  Michael Atanasov       : Ab Initio Ligand Field Theory (pilot matlab implementation)
  Alexander A. Auer      : GIAO ZORA, VPT2 properties, NMR spectrum      
  Ute Becker             : All parallelization in ORCA, NUMFREQ, NUMCALC 
  Giovanni Bistoni       : ED, misc. LED, open-shell LED, HFLD           
  Dmytro Bykov           : pre 5.0 version of the SCF Hessian            
  Marcos Casanova-Páez   : Triplet and SCS-CIS(D). UHF-(DLPNO)-IP/EA/STEOM-CCSD. UHF-CVS-IP/STEOM-CCSD   
  Vijay G. Chilkuri      : MRCI spin determinant printing, contributions to CSF-ICE 
  Pauline Colinet        : FMM embedding                                 
  Dipayan Datta          : RHF DLPNO-CCSD density                        
  Achintya Kumar Dutta   : EOM-CC, STEOM-CC                              
  Nicolas Foglia         : Exact transition moments, OPA infrastructure, MCD improvements    
  Dmitry Ganyushin       : Spin-Orbit,Spin-Spin,Magnetic field MRCI      
  Miquel Garcia-Rates    : C-PCM and meta-GGA Hessian, CCSD/C-PCM, Gaussian charge scheme 
  Tiago L. C. Gouveia    : GS-ROHF, GS-ROCIS                             
  Yang Guo               : DLPNO-NEVPT2, F12-NEVPT2, CIM, IAO-localization        
  Andreas Hansen         : Spin unrestricted coupled pair/coupled cluster methods 
  Ingolf Harden          : AUTO-CI MPn and infrastructure                
  Benjamin Helmich-Paris : MC-RPA, TRAH-(SCF,CASSCF), AVAS, COSX integrals, SCF dyn. polar., MC-PDFT, srDFT 
  Lee Huntington         : MR-EOM, pCC                                   
  Robert Izsak           : Overlap fitted RIJCOSX, COSX-SCS-MP3, EOM     
  Riya Kayal             : Wick's Theorem for AUTO-CI, AUTO-CI UHF-CCSDT 
  Emily Kempfer          : AUTO-CI RHF CISDT and CCSDT, approximate NEVPT4
  Christian Kollmar      : KDIIS, OOCD, Brueckner-CCSD(T), CCSD density, CASPT2, CASPT2-K, improved NEVPT2 
  Axel Koslowski         : Symmetry handling                             
  Simone Kossmann        : meta-GGA functionals, TD-DFT gradient, OOMP2, (MP2 Hessian; deprecated post 5.0) 
  Lucas Lang             : DCDCAS, Hyperfine gauge corrections, ICE-SOC+SSC
  Marvin Lechner         : AUTO-CI (C++ implementation), FIC-MRCC        
  Spencer Leger          : CASSCF response                               
  Dagmar Lenk            : GEPOL surface, SMD, ORCA-2-JSON               
  Dimitrios Liakos       : Extrapolation schemes; Compound Job, Property file
  Dimitrios Manganas     : Further ROCIS development; embedding schemes. LFT, Crystal Embedding 
  Dimitrios Pantazis     : SARC Basis sets                               
  Anastasios Papadopoulos: AUTO-CI, single reference methods and gradients 
  Taras Petrenko         : pre 6.0 DFT Hessian and TD-DFT gradient,  ECA, NRVS 
  Petra Pikulova         : Analytic Raman intensities                    
  Peter Pinski           : DLPNO-MP2, DLPNO-MP2 Gradient                 
  Shashank Vittal Rao    : ES-AILFT, MagRelax                            
  Christoph Reimann      : Effective Core Potentials                     
  Marius Retegan         : Local ZFS, SOC                                
  Christoph Riplinger    : Optimizer, TS searches, QM/MM, DLPNO-CCSD(T), (RO)-DLPNO pert. Triples 
  Michael Roemelt        : Original ROCIS implementation, recursive CI coupling coefficients
  Masaaki Saitow         : Open-shell DLPNO-CCSD energy and density      
  Barbara Sandhoefer     : DKH picture change effects                    
  Yorick L. A. Schmerwitz: GMF and freeze-and-release deltaSCF, NEB S-IDPP initial path                    
  Kantharuban Sivalingam : CASSCF convergence/infrastructure, NEVPT2, NEVPT3, NEVPT4(SD), FIC-MRCI and CEPA variants
  Bernardo de Souza      : ESD, SOC TD-DFT                               
  Georgi L. Stoychev     : AutoAux, RI-MP2 NMR, DLPNO-MP2 response, X2C  
  Van Anh Tran           : RI-MP2 g-tensors                              
  Willem Van den Heuvel  : Paramagnetic NMR                              
  Zikuan Wang            : NOTCH, Electric field optimization            
  Frank Wennmohs         : Technical directorship and infrastructure     
  Hang Xu                : AUTO-CI-Response properties                   
                                                                         
[FACCTs GmbH]                                                            
  Markus Bursch, Nicolas Foglia, Miquel Garcia-Rates, Ingolf Harden, Hagen Neugebauer, Anastasios Papadopoulos, 
  Christoph Riplinger, Bernardo de Souza, Georgi L. Stoychev                                                    
                                                                 
  APM, various basis sets, CI-OPT, improved COSX, DLPNO-Multilevel,           
  DOCKER, DRACO, updates on ESD, Fragmentator, GOAT, IRC, LR-CPCM, L-BFGS, MBIS, meta-GGA TD-DFT gradient, ML-optimized integration grids, 
  MM, NACMEs, nearIR, NEB, NEB-TS, NL-DFT gradient (VV10), 2- and 3-layer-ONIOM, interface openCOSMO-RS, QMMM,   
  Crystal-QMMM, RESP, rigid body optimization, SF, symmetry and pop. for TD-DFT, various functionals, SOLVATOR                                   
                                                                         
[Other institutions]                                                     
  V. Asgeirsson          : NEB                                           
  Christoph Bannwarth    : sTDA-DFT, sTD-DFT, PBEh-3c, B97-3c, D3        
  Giovanni Bistoni       : ETS/NOCV, ADLD/ADEX, COVALED                  
  Martin Brehm           : Molecular dynamics                            
  Ronald Cardenas        : ETS/NOCV                                      
  Martina Colucci        : COVALED                                       
  Sebastian Ehlert       : rSCAN, r2SCAN, r2SCAN-3c, D4, dhf basis sets  
  Marvin Friede          : D4 for Fr, Ra, Ac-Lr                          
  Lars Goerigk           : TD-DFT with DH, B97 family of functionals     
  Stefan Grimme          : VdW corrections, initial TS optimization, DFT functionals, gCP, sTDA/sTD-DF 
  Waldemar Hujo          : DFT-NL                                        
  H. Jonsson             : NEB                                           
  Holger Kruse           : gCP                                           
  Marcel Mueller         : wB97X-3c, vDZP basis set                      
  Hagen Neugebauer       : wr2SCAN, Native XTB                           
  Gianluca Regni         : ADLD/ADEX                                     
  Tobias Risthaus        : pre 6.0 range-separated hybrid DFT and stability analysis
  Lukas Wittmann         : regularized MP2, r2SCAN double-hybrids, wr2SCAN        
                                                                         
We gratefully acknowledge several colleagues who have allowed us to      
interface, adapt or use parts of their codes:                            
  Ed Valeev, F. Pavosevic, A. Kumar             : LibInt (2-el integral package), F12 methods 
  Garnet Chan, S. Sharma, J. Yang, R. Olivares  : DMRG                   
  Ulf Ekstrom                                   : XCFun DFT Library      
  Mihaly Kallay                                 : mrcc  (arbitrary order and MRCC methods)
  Frank Weinhold                                : gennbo (NPA and NBO analysis)           
  Simon Mueller                                 : openCOSMO-RS                            
  Christopher J. Cramer and Donald G. Truhlar   : smd solvation model                     
  S Lehtola, MJT Oliveira, MAL Marques          : LibXC Library                           
  Liviu Ungur et al                             : ANISO software                          


 Your calculation uses the libint2 library for the computation of 2-el integrals
 For citations please refer to: http://libint.valeyev.net

 Your ORCA version has been built with support for libXC version: 7.0.0
 For citations please refer to: https://libxc.gitlab.io

 This ORCA versions uses:
   CBLAS   interface :  Fast vector & matrix operations
   LAPACKE interface :  Fast linear algebra routines
   SCALAPACK package :  Parallel linear algebra routines
   Shared memory     :  Shared parallel matrices
   BLAS/LAPACK       :  OpenBLAS 0.3.29  USE64BITINT DYNAMIC_ARCH NO_AFFINITY Haswell SINGLE_THREADED
        Core in use  :  Haswell
   Copyright (c) 2011-2014, The OpenBLAS Project


  ***********************************
  * Starting time: Sun Aug 10 11:24:02 2025
  * Host name:     chemlab03
  * Process ID:    1679694
  * Working dir.:  /home/test/Desktop/Aishani MM/attachments
  ***********************************



***************************************
The coordinates will be read from file: n.xyz
***************************************


Your calculation utilizes the semiempirical GFN2-xTB method
Please cite in your paper:
Bannwarth, C.; Ehlert S.; Grimme, S. J. Chem. Theory Comput. 2019, 15, 1652.
   

================================================================================

================================================================================
                                        WARNINGS
                       Please study these warnings very carefully!
================================================================================


================================================================================
 STARTING AUTOMATIC FRAGMENTATION: 
================================================================================

WARNING: Geometry Optimization
  ===> : Switching off AutoStart
         For restart on a previous wavefunction, please use MOREAD

WARNING: Found dipole moment calculation with XTB calculation
  ===> : Switching off dipole moment calculation


================================================================================
                                       INPUT FILE
================================================================================
NAME = n.inp
|  1> ! xtb goat
|  2> 
|  3> * xyzfile 0 1 n.xyz
|  4> 
|  5>                          ****END OF INPUT****
================================================================================

                       *****************************
                       * Geometry Optimization Run *
                       *****************************


                       *********************************
                       *              GOAT             *
                       * Global Optimization Algorithm *
                       *********************************

Geometry optimization settings:
Update method            Update   .... BFGS
Choice of coordinates    CoordSys .... (2022) Redundant Internals
Initial Hessian          InHess   .... Almloef's Model
Max. no of cycles        MaxIter  .... 60

Convergence Tolerances:
Energy Change            TolE     ....  5.0000e-06 Eh
Max. Gradient            TolMAXG  ....  3.0000e-04 Eh/bohr
RMS Gradient             TolRMSG  ....  1.0000e-04 Eh/bohr
Max. Displacement        TolMAXD  ....  4.0000e-03 bohr
RMS Displacement         TolRMSD  ....  2.0000e-03 bohr
Strict Convergence                .... True

------------------------------------------------------------------------------
                        ORCA OPTIMIZATION COORDINATE SETUP
------------------------------------------------------------------------------

The optimization will be done in redundant internal coordinates (2022)
Making redundant internal coordinates   ...  (2022 redundants) done
Evaluating the initial hessian          ...  (Almloef) done
Evaluating the coordinates              ...  done
Calculating the B-matrix                .... done
Calculating the G-matrix                .... done
The number of degrees of freedom        ....   86

    -----------------------------------------------------------------
                    Redundant Internal Coordinates


    -----------------------------------------------------------------
         Definition                    Initial Value    Approx d2E/dq
    -----------------------------------------------------------------
      1. B(C   1,C   0)                  1.5392         0.361124   
      2. B(H   2,C   0)                  1.0952         0.353222   
      3. B(C   4,C   0)                  1.5337         0.368535   
      4. B(O   6,C   1)                  1.3572         0.631297   
      5. B(N   7,H   5)                  1.0272         0.406250   
      6. B(N   7,H   3)                  1.0243         0.410539   
      7. B(N   7,C   0)                  1.4955         0.379823   
      8. B(H   8,O   6)                  0.9916         0.463033   
      9. B(H   8,N   7)                  1.7949         0.024202   
     10. B(C   9,C   4)                  1.5327         0.369852   
     11. B(O  10,C   1)                  1.2220         1.037419   
     12. B(H  11,C   4)                  1.0978         0.349961   
     13. B(H  12,C   4)                  1.0975         0.350328   
     14. B(C  13,C   9)                  1.5120         0.399041   
     15. B(H  14,C   9)                  1.0952         0.353233   
     16. B(H  15,C   9)                  1.0968         0.351254   
     17. B(O  16,C  13)                  1.2262         1.021434   
     18. B(N  17,C  13)                  1.3592         0.626539   
     19. B(H  18,O  10)                  1.8312         0.021186   
     20. B(H  18,N  17)                  1.0202         0.416791   
     21. B(H  19,N  17)                  1.0110         0.431077   
     22. A(C   1,C   0,C   4)          110.8139         0.360419   
     23. A(C   4,C   0,N   7)          109.9671         0.361279   
     24. A(C   1,C   0,N   7)          107.7265         0.360030   
     25. A(H   2,C   0,N   7)          107.9544         0.322240   
     26. A(C   1,C   0,H   2)          108.7894         0.321503   
     27. A(H   2,C   0,C   4)          111.4697         0.322575   
     28. A(C   0,C   1,O  10)          125.0059         0.429240   
     29. A(O   6,C   1,O  10)          123.3877         0.471914   
     30. A(C   0,C   1,O   6)          111.5676         0.393060   
     31. A(C   0,C   4,H  11)          110.0334         0.322085   
     32. A(C   0,C   4,C   9)          113.2425         0.361890   
     33. A(H  11,C   4,H  12)          106.5525         0.288294   
     34. A(C   9,C   4,H  12)          107.2643         0.322329   
     35. A(C   0,C   4,H  12)          108.5957         0.322140   
     36. A(C   9,C   4,H  11)          110.8677         0.322273   
     37. A(C   1,O   6,H   8)          105.6396         0.363956   
     38. A(H   3,N   7,H   5)          103.9062         0.297720   
     39. A(C   0,N   7,H   5)          107.7948         0.326937   
     40. A(C   0,N   7,H   3)          108.3184         0.327503   
     41. A(H  14,C   9,H  15)          106.1445         0.288834   
     42. A(C  13,C   9,H  15)          106.8071         0.326517   
     43. A(C   4,C   9,H  15)          109.7130         0.322468   
     44. A(C  13,C   9,H  14)          109.5890         0.326819   
     45. A(C   4,C   9,H  14)          112.4818         0.322765   
     46. A(C   4,C   9,C  13)          111.7965         0.366847   
     47. A(O  16,C  13,N  17)          121.5425         0.469917   
     48. A(C   9,C  13,N  17)          115.6008         0.399477   
     49. A(C   9,C  13,O  16)          122.8364         0.435795   
     50. A(H  18,N  17,H  19)          117.5628         0.301266   
     51. A(C  13,N  17,H  19)          118.2502         0.359079   
     52. A(C  13,N  17,H  18)          122.8783         0.357027   
     53. D(O  10,C   1,C   0,H   2)     52.9385         0.010000   
     54. D(O   6,C   1,C   0,H   2)   -129.2706         0.010000   
     55. D(O   6,C   1,C   0,N   7)    -12.4887         0.010000   
     56. D(O   6,C   1,C   0,C   4)    107.8456         0.010000   
     57. D(O  10,C   1,C   0,C   4)    -69.9453         0.010000   
     58. D(C   9,C   4,C   0,H   2)    -49.6234         0.010863   
     59. D(H  11,C   4,C   0,N   7)     65.9882         0.010863   
     60. D(H  11,C   4,C   0,H   2)   -174.3207         0.010863   
     61. D(H  11,C   4,C   0,C   1)    -53.0032         0.010863   
     62. D(C   9,C   4,C   0,C   1)     71.6942         0.010863   
     63. D(C   9,C   4,C   0,N   7)   -169.3145         0.010863   
     64. D(H   8,O   6,C   1,O  10)    177.5986         0.029318   
     65. D(H   8,O   6,C   1,C   0)     -0.2343         0.029318   
     66. D(H   3,N   7,C   0,C   1)    165.7772         0.013212   
     67. D(H   3,N   7,C   0,H   2)    -76.8979         0.013212   
     68. D(H   5,N   7,C   0,C   4)    156.7587         0.013212   
     69. D(H   5,N   7,C   0,H   2)     34.9501         0.013212   
     70. D(H   5,N   7,C   0,C   1)    -82.3747         0.013212   
     71. D(H   3,N   7,C   0,C   4)     44.9106         0.013212   
     72. D(H  14,C   9,C   4,H  12)   -111.2713         0.010936   
     73. D(H  14,C   9,C   4,H  11)    132.7682         0.010936   
     74. D(H  14,C   9,C   4,C   0)      8.5240         0.010936   
     75. D(C  13,C   9,C   4,H  12)    124.9298         0.010936   
     76. D(C  13,C   9,C   4,H  11)      8.9693         0.010936   
     77. D(C  13,C   9,C   4,C   0)   -115.2749         0.010936   
     78. D(N  17,C  13,C   9,H  14)    -37.4377         0.011820   
     79. D(N  17,C  13,C   9,C   4)     87.9738         0.011820   
     80. D(O  16,C  13,C   9,H  15)     29.6061         0.011820   
     81. D(O  16,C  13,C   9,H  14)    144.1761         0.011820   
     82. D(O  16,C  13,C   9,C   4)    -90.4125         0.011820   
     83. D(H  18,N  17,C  13,C   9)     -9.2494         0.031840   
     84. D(H  19,N  17,C  13,O  16)      2.5550         0.031840   
     85. D(H  19,N  17,C  13,C   9)   -175.8540         0.031840   
     86. D(H  18,N  17,C  13,O  16)    169.1596         0.031840   
    -----------------------------------------------------------------

Number of atoms                         .... 20
Number of degrees of freedom            .... 86


         *************************************************************
         *                GEOMETRY OPTIMIZATION CYCLE   1            *
         *************************************************************
---------------------------------
CARTESIAN COORDINATES (ANGSTROEM)
---------------------------------
  C    -0.014677   -0.085298    0.517819
  C     1.221746    0.826796    0.425299
  H    -0.226245   -0.286750    1.573389
  H    -1.939206    0.000182   -0.215322
  C     0.205849   -1.383660   -0.268217
  H    -1.542455    1.281601    0.685014
  O     0.989142    1.903638   -0.367324
  N    -1.177168    0.664506   -0.050410
  H     0.055149    1.804778   -0.685250
  C     1.204326   -2.334153    0.401751
  O     2.299106    0.603242    0.956839
  H     0.514732   -1.153131   -1.296106
  H    -0.751406   -1.915464   -0.341219
  C     2.446571   -2.526807   -0.438489
  H     1.488253   -2.003099    1.406411
  H     0.747804   -3.323823    0.524418
  O     2.551431   -3.416231   -1.276040
  N     3.441066   -1.623494   -0.232224
  H     3.318896   -0.785566    0.336778
  H     4.264028   -1.675880   -0.817174

----------------------------
CARTESIAN COORDINATES (A.U.)
----------------------------
  NO LB    ZA    FRAG    MASS        X           Y           Z
   0 C   6.0000    1    12.011   -0.027735   -0.161190    0.978536
   1 C   6.0000    1    12.011    2.308766    1.562419    0.803699
   2 H   1.0000    1     1.008   -0.427542   -0.541879    2.973274
   3 H   1.0000    1     1.008   -3.664568    0.000345   -0.406899
   4 C   6.0000    1    12.011    0.388999   -2.614738   -0.506856
   5 H   1.0000    1     1.008   -2.914818    2.421874    1.294489
   6 O   8.0000    1    15.999    1.869208    3.597355   -0.694141
   7 N   7.0000    1    14.007   -2.224524    1.255735   -0.095261
   8 H   1.0000    1     1.008    0.104216    3.410537   -1.294934
   9 C   6.0000    1    12.011    2.275846   -4.410910    0.759199
  10 O   8.0000    1    15.999    4.344681    1.139963    1.808164
  11 H   1.0000    1     1.008    0.972703   -2.179102   -2.449286
  12 H   1.0000    1     1.008   -1.419952   -3.619703   -0.644810
  13 C   6.0000    1    12.011    4.623349   -4.774973   -0.828625
  14 H   1.0000    1     1.008    2.812390   -3.785308    2.657731
  15 H   1.0000    1     1.008    1.413145   -6.281115    0.991006
  16 O   8.0000    1    15.999    4.821507   -6.455741   -2.411366
  17 N   7.0000    1    14.007    6.502671   -3.067960   -0.438839
  18 H   1.0000    1     1.008    6.271804   -1.484505    0.636417
  19 H   1.0000    1     1.008    8.057845   -3.166955   -1.544235

      -----------------------------------------------------------      
     |                   =====================                   |     
     |                           x T B                           |     
     |                   =====================                   |     
     |                         S. Grimme                         |     
     |          Mulliken Center for Theoretical Chemistry        |     
     |                    University of Bonn                     |     
      -----------------------------------------------------------      

   * xtb version 6.7.1 (edcfbbe) compiled by 'albert@albert-system' on 2024-07-22

   xtb is free software: you can redistribute it and/or modify it under
   the terms of the GNU Lesser General Public License as published by
   the Free Software Foundation, either version 3 of the License, or
   (at your option) any later version.
   
   xtb is distributed in the hope that it will be useful,
   but WITHOUT ANY WARRANTY; without even the implied warranty of
   MERCHANTABILITY or FITNESS FOR A PARTICULAR PURPOSE.  See the
   GNU Lesser General Public License for more details.
   
   Cite this work as:
   * C. Bannwarth, E. Caldeweyher, S. Ehlert, A. Hansen, P. Pracht,
     J. Seibert, S. Spicher, S. Grimme, WIREs Comput. Mol. Sci., 2020, 11,
     e01493. DOI: 10.1002/wcms.1493
   
   for GFN2-xTB:
   * C. Bannwarth, S. Ehlert and S. Grimme., J. Chem. Theory Comput., 2019,
     15, 1652-1671. DOI: 10.1021/acs.jctc.8b01176
   for GFN1-xTB:
   * S. Grimme, C. Bannwarth, P. Shushkov, J. Chem. Theory Comput., 2017,
     13, 1989-2009. DOI: 10.1021/acs.jctc.7b00118
   for GFN0-xTB:
   * P. Pracht, E. Caldeweyher, S. Ehlert, S. Grimme, ChemRxiv, 2019, preprint.
     DOI: 10.26434/chemrxiv.8326202.v1
   for GFN-FF:
   * S. Spicher and S. Grimme, Angew. Chem. Int. Ed., 2020, 59, 15665-15673.
     DOI: 10.1002/anie.202004239
   
   for ALPB and GBSA implicit solvation:
   * S. Ehlert, M. Stahn, S. Spicher, S. Grimme, J. Chem. Theory Comput.,
     2021, 17, 4250-4261. DOI: 10.1021/acs.jctc.1c00471
   
   for ddCOSMO and CPCM-X implicit solvation:
   * M. Stahn, S. Ehlert, S. Grimme, J. Phys. Chem. A,
     2023, XX, XXXX-XXXX. DOI: 10.1021/acs.jpca.3c04382
   
   for DFT-D4:
   * E. Caldeweyher, C. Bannwarth and S. Grimme, J. Chem. Phys., 2017,
     147, 034112. DOI: 10.1063/1.4993215
   * E. Caldeweyher, S. Ehlert, A. Hansen, H. Neugebauer, S. Spicher,
     C. Bannwarth and S. Grimme, J. Chem. Phys., 2019, 150, 154122.
     DOI: 10.1063/1.5090222
   * E. Caldeweyher, J.-M. Mewes, S. Ehlert and S. Grimme, Phys. Chem. Chem. Phys.
     2020, 22, 8499-8512. DOI: 10.1039/D0CP00502A
   
   for sTDA-xTB:
   * S. Grimme and C. Bannwarth, J. Chem. Phys., 2016, 145, 054103.
     DOI: 10.1063/1.4959605
   
   in the mass-spec context:
   * V. Asgeirsson, C. Bauer and S. Grimme, Chem. Sci., 2017, 8, 4879.
     DOI: 10.1039/c7sc00601b
   * J. Koopman and S. Grimme, ACS Omega 2019, 4, 12, 15120-15133.
     DOI: 10.1021/acsomega.9b02011
   
   for metadynamics refer to:
   * S. Grimme, J. Chem. Theory Comput., 2019, 155, 2847-2862
     DOI: 10.1021/acs.jctc.9b00143
   
   for SPH calculations refer to:
   * S. Spicher and S. Grimme, J. Chem. Theory Comput., 2021, 17, 1701-1714
     DOI: 10.1021/acs.jctc.0c01306
   
   for ONIOM refer to:
   * C. Plett, A. Katbashev, S. Ehlert, S. Grimme, M. Bursch,
     Phys. Chem. Chem. Phys., 2023, 25, 17860-17868. DOI: 10.1039/D3CP02178E
   
   for DIPRO refer to:
   * J. Kohn, N. Gildemeister, S. Grimme, D. Fazzi, A. Hansen,
     J. Chem. Phys., 2023, just accepted.
   
   for PTB refer to:
   * S. Grimme, M. Mueller, A. Hansen, J. Chem. Phys., 2023, 158, 124111.
     DOI: 10.1063/5.0137838
   
   with help from (in alphabetical order)
   P. Atkinson, C. Bannwarth, F. Bohle, G. Brandenburg, E. Caldeweyher
   M. Checinski, S. Dohm, S. Ehlert, S. Ehrlich, I. Gerasimov, C. Hölzer
   A. Katbashev, J. Kohn, J. Koopman, C. Lavigne, S. Lehtola, F. März, M. Müller,
   F. Musil, H. Neugebauer, J. Pisarek, C. Plett, P. Pracht, F. Pultar,
   J. Seibert, P. Shushkov, S. Spicher, M. Stahn, M. Steiner, T. Strunk,
   J. Stückrath, T. Rose, and J. Unsleber
   
 * started run on 2025/08/10 at 11:24:02.292     
   ID    Z sym.   atoms
    1    6 C      1, 2, 5, 10, 14
    2    1 H      3, 4, 6, 9, 12, 13, 15, 16, 19, 20
    3    8 O      7, 11, 17
    4    7 N      8, 18

           -------------------------------------------------
          |                Calculation Setup                |
           -------------------------------------------------

          program call               : /home/test/orca/orca_6_1_0_linux_x86-64_shared_openmpi418/otool_xtb n_XTB.xyz --grad -c 0 -u 0 -P 1 --namespace n --input n_XTB.input.tmp --acc 0.200000
          calculation namespace      : n
          coordinate file            : n_XTB.xyz
          omp threads                :                     1


           -------------------------------------------------
          |                 G F N 2 - x T B                 |
           -------------------------------------------------

        Reference                      10.1021/acs.jctc.8b01176
      * Hamiltonian:
        H0-scaling (s, p, d)           1.850000    2.230000    2.230000
        zeta-weighting                 0.500000
      * Dispersion:
        s8                             2.700000
        a1                             0.520000
        a2                             5.000000
        s9                             5.000000
      * Repulsion:
        kExp                           1.500000    1.000000
        rExp                           1.000000
      * Coulomb:
        alpha                          2.000000
        third order                    shell-resolved
        anisotropic                    true
        a3                             3.000000
        a5                             4.000000
        cn-shift                       1.200000
        cn-exp                         4.000000
        max-rad                        5.000000


          ...................................................
          :                      SETUP                      :
          :.................................................:
          :  # basis functions                  50          :
          :  # atomic orbitals                  50          :
          :  # shells                           30          :
          :  # electrons                        58          :
          :  max. iterations                   250          :
          :  Hamiltonian                  GFN2-xTB          :
          :  restarted?                      false          :
          :  GBSA solvation                  false          :
          :  PC potential                    false          :
          :  electronic temp.          300.0000000     K    :
          :  accuracy                    0.2000000          :
          :  -> integral cutoff          0.3198970E+02      :
          :  -> integral neglect         0.2000000E-08      :
          :  -> SCF convergence          0.2000000E-06 Eh   :
          :  -> wf. convergence          0.2000000E-04 e    :
          :  Broyden damping             0.4000000          :
          :  net charge                          0          :
          :  unpaired electrons                  0          :
          ...................................................

 iter      E             dE          RMSdq      gap      omega  full diag
   1    -34.0655255 -0.340655E+02  0.444E+00    4.20       0.0  T
   2    -34.1622629 -0.967374E-01  0.221E+00    3.22       1.0  T
   3    -34.1672623 -0.499938E-02  0.126E+00    3.69       1.0  T
   4    -34.1686228 -0.136051E-02  0.243E-01    3.25       1.0  T
   5    -34.1693851 -0.762278E-03  0.932E-02    3.33       1.0  T
   6    -34.1694063 -0.212466E-04  0.452E-02    3.33       1.0  T
   7    -34.1694079 -0.158070E-05  0.840E-03    3.34       2.7  T
   8    -34.1694081 -0.209601E-06  0.397E-03    3.34       5.6  T
   9    -34.1694082 -0.236897E-07  0.158E-03    3.34      14.1  T
  10    -34.1694082 -0.819413E-08  0.409E-04    3.34      54.7  T
  11    -34.1694082 -0.447926E-09  0.205E-04    3.34     109.2  T
  12    -34.1694082 -0.103071E-09  0.659E-05    3.34     339.3  T
  13    -34.1694082 -0.230571E-10  0.286E-05    3.34     780.6  T

   *** convergence criteria satisfied after 13 iterations ***

         #    Occupation            Energy/Eh            Energy/eV
      -------------------------------------------------------------
         1        2.0000           -0.7489286             -20.3794
       ...           ...                  ...                  ...
        23        2.0000           -0.4767549             -12.9732
        24        2.0000           -0.4674162             -12.7190
        25        2.0000           -0.4607123             -12.5366
        26        2.0000           -0.4405820             -11.9888
        27        2.0000           -0.4236507             -11.5281
        28        2.0000           -0.4062458             -11.0545
        29        2.0000           -0.3872552             -10.5378 (HOMO)
        30                         -0.2645027              -7.1975 (LUMO)
        31                         -0.2056793              -5.5968
        32                         -0.0388871              -1.0582
        33                          0.0164798               0.4484
        34                          0.0257660               0.7011
       ...                                ...                  ...
        50                          0.6046768              16.4541
      -------------------------------------------------------------
                  HL-Gap            0.1227525 Eh            3.3403 eV
             Fermi-level           -0.3258790 Eh           -8.8676 eV

 SCC (total)                   0 d,  0 h,  0 min,  0.009 sec
 SCC setup                      ...        0 min,  0.000 sec (  1.072%)
 Dispersion                     ...        0 min,  0.000 sec (  0.715%)
 classical contributions        ...        0 min,  0.000 sec (  0.152%)
 integral evaluation            ...        0 min,  0.001 sec ( 10.669%)
 iterations                     ...        0 min,  0.005 sec ( 57.165%)
 molecular gradient             ...        0 min,  0.003 sec ( 29.454%)
 printout                       ...        0 min,  0.000 sec (  0.682%)

         :::::::::::::::::::::::::::::::::::::::::::::::::::::
         ::                     SUMMARY                     ::
         :::::::::::::::::::::::::::::::::::::::::::::::::::::
         :: total energy             -33.847108890783 Eh    ::
         :: gradient norm              0.067746045764 Eh/a0 ::
         :: HOMO-LUMO gap              3.340264373674 eV    ::
         ::.................................................::
         :: SCC energy               -34.169321294697 Eh    ::
         :: -> isotropic ES            0.098292685031 Eh    ::
         :: -> anisotropic ES          0.000724161764 Eh    ::
         :: -> anisotropic XC          0.009098146325 Eh    ::
         :: -> dispersion             -0.014791183193 Eh    ::
         :: repulsion energy           0.322212403914 Eh    ::
         :: add. restraining           0.000000000000 Eh    ::
         :: total charge               0.000000000000 e     ::
         :::::::::::::::::::::::::::::::::::::::::::::::::::::


Property printout bound to 'properties.out'

           -------------------------------------------------
          | TOTAL ENERGY              -33.847108890783 Eh   |
          | GRADIENT NORM               0.067746045764 Eh/α |
          | HOMO-LUMO GAP               3.340264373674 eV   |
           -------------------------------------------------

------------------------------------------------------------------------
 * finished run on 2025/08/10 at 11:24:02.307     
------------------------------------------------------------------------
 total:
 * wall-time:     0 d,  0 h,  0 min,  0.015 sec
 *  cpu-time:     0 d,  0 h,  0 min,  0.014 sec
 * ratio c/w:     0.923 speedup
 SCF:
 * wall-time:     0 d,  0 h,  0 min,  0.009 sec
 *  cpu-time:     0 d,  0 h,  0 min,  0.008 sec
 * ratio c/w:     0.885 speedup


-------------------------   --------------------
FINAL SINGLE POINT ENERGY       -33.847108890780
-------------------------   --------------------


-------------
DIPOLE MOMENT
-------------
                                X             Y             Z
Total Dipole Moment    :     -2.07100       0.97300       0.85500
                        -----------------------------------------
Magnitude (a.u.)       :      2.44270
Magnitude (Debye)      :      6.20886


------------------
CARTESIAN GRADIENT
------------------

   1   C   :    0.010297040   -0.010263110    0.002387764
   2   C   :   -0.015282315   -0.012693824    0.007125456
   3   H   :   -0.006072639    0.006189945   -0.002319811
   4   H   :   -0.006182216   -0.004163079    0.004223204
   5   C   :    0.003629310    0.002576605    0.000343793
   6   H   :   -0.003590209    0.000804193    0.006591879
   7   O   :   -0.005914319    0.021630838   -0.015721917
   8   N   :    0.000586445    0.007541921   -0.013302617
   9   H   :   -0.003921921   -0.001872758    0.000211377
  10   C   :   -0.001597554    0.007655277   -0.009321270
  11   O   :    0.033309569   -0.008720672    0.013068082
  12   H   :   -0.000172181   -0.000566317   -0.004376285
  13   H   :   -0.000684125   -0.004563926    0.000145228
  14   C   :   -0.016161187    0.003326809    0.018261284
  15   H   :    0.000587764   -0.003626877    0.004107352
  16   H   :   -0.000817929   -0.002464193    0.002493956
  17   O   :    0.002806779   -0.012103703   -0.014500318
  18   N   :    0.005353400    0.001736826   -0.001338740
  19   H   :    0.000343790    0.008648099    0.003289331
  20   H   :    0.003482496    0.000927944   -0.001367748

Difference to translation invariance:
           :    0.0000000000    0.0000000000   -0.0000000000

Difference to rotation invariance:
           :    0.0000000890   -0.0000000910   -0.0000002121

Norm of the Cartesian gradient     ...    0.0677460458
RMS gradient                       ...    0.0087459769
MAX gradient                       ...    0.0333095691
------------------------------------------------------------------------------
                         ORCA GEOMETRY RELAXATION STEP
------------------------------------------------------------------------------

Reading the OPT-File                    .... done
Getting information on internals        .... done
Copying old internal coords+grads       .... done
Making the new internal coordinates     .... (2022 redundants) done
Validating the new internal coordinates .... (2022 redundants) done
Calculating the B-matrix                .... done
Calculating the G,G- and P matrices     .... done
Transforming gradient to internals      .... done
Projecting the internal gradient        .... done
Number of atoms                         ....  20
Number of internal coordinates          ....  86
Current Energy                          ....   -33.847108891 Eh
Current gradient norm                   ....     0.067746046 Eh/bohr
Maximum allowed component of the step   ....  0.300
Current trust radius                    ....  0.300
Evaluating the initial hessian          ....  (Almloef) done
Projecting the Hessian                  .... done
Forming the augmented Hessian           .... done
Diagonalizing the augmented Hessian     .... done
Last element of RFO vector              ....  0.970583931
Lowest eigenvalues of augmented Hessian:
 -0.006868995  0.010816385  0.010945321  0.011661504  0.013290532
Length of the computed step             ....  0.248059974
The final length of the internal step   ....  0.248059974
Converting the step to Cartesian space:
 Initial RMS(Int)=    0.0267489949
Transforming coordinates:
 Iter   0:  RMS(Cart)=    0.0449650756 RMS(Int)=    0.0268254968
 Iter   5:  RMS(Cart)=    0.0000000171 RMS(Int)=    0.0000000118
done
Storing new coordinates                 .... done

                                .--------------------.
          ----------------------|Geometry convergence|-------------------------
          Item                value                   Tolerance       Converged
          ---------------------------------------------------------------------
          RMS gradient        0.0062496297            0.0001000000      NO
          MAX gradient        0.0352086071            0.0003000000      NO
          RMS step            0.0267489949            0.0020000000      NO
          MAX step            0.0958160904            0.0040000000      NO
          -------------------------------------------------------------------------
          ........................................................
          Max(Bonds)      0.0488      Max(Angles)    2.11
          Max(Dihed)        5.49      Max(Improp)    0.00
          ---------------------------------------------------------------------

    ---------------------------------------------------------------------------
                         Redundant Internal Coordinates
                            (Angstroem and degrees)

        Definition                    Value    dE/dq     Step     New-Value
    ----------------------------------------------------------------------------
     1. B(C   1,C   0)                1.5392  0.006617 -0.0092    1.5301   
     2. B(H   2,C   0)                1.0952 -0.002201  0.0032    1.0985   
     3. B(C   4,C   0)                1.5337  0.002058 -0.0024    1.5313   
     4. B(O   6,C   1)                1.3572  0.027268 -0.0225    1.3347   
     5. B(N   7,H   5)                1.0272  0.006479 -0.0083    1.0189   
     6. B(N   7,H   3)                1.0243  0.006619 -0.0084    1.0159   
     7. B(N   7,C   0)                1.4955  0.010298 -0.0141    1.4814   
     8. B(H   8,O   6)                0.9916  0.002961 -0.0035    0.9880   
     9. B(H   8,N   7)                1.7949 -0.001428  0.0196    1.8146   
    10. B(C   9,C   4)                1.5327 -0.003700  0.0056    1.5383   
    11. B(O  10,C   1)                1.2220  0.035209 -0.0179    1.2040   
    12. B(H  11,C   4)                1.0978  0.003930 -0.0058    1.0919   
    13. B(H  12,C   4)                1.0975  0.002799 -0.0041    1.0933   
    14. B(C  13,C   9)                1.5120 -0.003953  0.0055    1.5176   
    15. B(H  14,C   9)                1.0952  0.002824 -0.0041    1.0911   
    16. B(H  15,C   9)                1.0968  0.002843 -0.0042    1.0926   
    17. B(O  16,C  13)                1.2262  0.018924 -0.0097    1.2165   
    18. B(N  17,C  13)                1.3592  0.013882 -0.0116    1.3476   
    19. B(H  18,O  10)                1.8312 -0.002982  0.0488    1.8800   
    20. B(H  18,N  17)                1.0202  0.006277 -0.0083    1.0119   
    21. B(H  19,N  17)                1.0110  0.003578 -0.0043    1.0067   
    22. A(C   1,C   0,C   4)          110.81  0.000640   -0.65    110.17   
    23. A(C   4,C   0,N   7)          109.97 -0.001586    0.26    110.23   
    24. A(C   1,C   0,N   7)          107.73  0.003585   -0.78    106.95   
    25. A(H   2,C   0,N   7)          107.95 -0.005405    2.11    110.06   
    26. A(C   1,C   0,H   2)          108.79 -0.000730   -0.01    108.78   
    27. A(H   2,C   0,C   4)          111.47  0.003366   -0.87    110.60   
    28. A(C   0,C   1,O  10)          125.01  0.005217   -0.74    124.27   
    29. A(O   6,C   1,O  10)          123.39  0.003681   -0.52    122.87   
    30. A(C   0,C   1,O   6)          111.57 -0.008895    1.31    112.88   
    31. A(C   0,C   4,H  11)          110.03  0.001784   -0.59    109.44   
    32. A(C   0,C   4,C   9)          113.24 -0.001135    0.23    113.47   
    33. A(H  11,C   4,H  12)          106.55  0.000800    0.19    106.74   
    34. A(C   9,C   4,H  12)          107.26 -0.005144    1.09    108.35   
    35. A(C   0,C   4,H  12)          108.60  0.002943   -0.44    108.16   
    36. A(C   9,C   4,H  11)          110.87  0.000749   -0.43    110.44   
    37. A(C   1,O   6,H   8)          105.64 -0.001730    0.33    105.97   
    38. A(H   3,N   7,H   5)          103.91 -0.001540    1.49    105.40   
    39. A(C   0,N   7,H   5)          107.79 -0.003278    1.02    108.82   
    40. A(C   0,N   7,H   3)          108.32 -0.002608    0.90    109.22   
    41. A(H  14,C   9,H  15)          106.14 -0.002794    0.93    107.08   
    42. A(C  13,C   9,H  15)          106.81  0.000670    0.08    106.89   
    43. A(C   4,C   9,H  15)          109.71 -0.000121    0.10    109.81   
    44. A(C  13,C   9,H  14)          109.59 -0.000426   -0.12    109.47   
    45. A(C   4,C   9,H  14)          112.48  0.002481   -0.80    111.68   
    46. A(C   4,C   9,C  13)          111.80 -0.000038   -0.09    111.71   
    47. A(O  16,C  13,N  17)          121.54 -0.004573    0.55    122.09   
    48. A(C   9,C  13,N  17)          115.60  0.004534   -0.47    115.13   
    49. A(C   9,C  13,O  16)          122.84  0.000017   -0.01    122.83   
    50. A(H  18,N  17,H  19)          117.56 -0.002969    0.52    118.08   
    51. A(C  13,N  17,H  19)          118.25 -0.000156   -0.00    118.25   
    52. A(C  13,N  17,H  18)          122.88  0.003193   -0.48    122.40   
    53. D(O  10,C   1,C   0,H   2)     52.94  0.003415   -5.49     47.45   
    54. D(O   6,C   1,C   0,H   2)   -129.27  0.003547   -3.85   -133.13   
    55. D(O   6,C   1,C   0,N   7)    -12.49 -0.001283   -1.79    -14.28   
    56. D(O   6,C   1,C   0,C   4)    107.85 -0.000594   -2.34    105.50   
    57. D(O  10,C   1,C   0,C   4)    -69.95 -0.000725   -3.98    -73.92   
    58. D(C   9,C   4,C   0,H   2)    -49.62 -0.001451   -0.12    -49.74   
    59. D(H  11,C   4,C   0,N   7)     65.99  0.002673   -1.51     64.48   
    60. D(H  11,C   4,C   0,H   2)   -174.32 -0.002979    0.74   -173.58   
    61. D(H  11,C   4,C   0,C   1)    -53.00 -0.001163   -0.31    -53.32   
    62. D(C   9,C   4,C   0,C   1)     71.69  0.000365   -1.17     70.53   
    63. D(C   9,C   4,C   0,N   7)   -169.31  0.004201   -2.37   -171.68   
    64. D(H   8,O   6,C   1,O  10)    177.60  0.000291    0.41    178.01   
    65. D(H   8,O   6,C   1,C   0)     -0.23  0.000115   -1.19     -1.42   
    66. D(H   3,N   7,C   0,C   1)    165.78  0.004113   -3.41    162.37   
    67. D(H   3,N   7,C   0,H   2)    -76.90  0.002305   -2.72    -79.62   
    68. D(H   5,N   7,C   0,C   4)    156.76 -0.002553    0.36    157.12   
    69. D(H   5,N   7,C   0,H   2)     34.95 -0.002316   -0.06     34.89   
    70. D(H   5,N   7,C   0,C   1)    -82.37 -0.000507   -0.75    -83.12   
    71. D(H   3,N   7,C   0,C   4)     44.91  0.002067   -2.30     42.61   
    72. D(H  14,C   9,C   4,H  12)   -111.27  0.000201   -0.84   -112.11   
    73. D(H  14,C   9,C   4,H  11)    132.77  0.001806   -1.47    131.30   
    74. D(H  14,C   9,C   4,C   0)      8.52 -0.000283   -0.52      8.00   
    75. D(C  13,C   9,C   4,H  12)    124.93 -0.001088   -0.01    124.92   
    76. D(C  13,C   9,C   4,H  11)      8.97  0.000517   -0.64      8.33   
    77. D(C  13,C   9,C   4,C   0)   -115.27 -0.001573    0.31   -114.96   
    78. D(N  17,C  13,C   9,H  14)    -37.44 -0.002413    2.93    -34.51   
    79. D(N  17,C  13,C   9,C   4)     87.97  0.000459    1.74     89.71   
    80. D(O  16,C  13,C   9,H  15)     29.61  0.001657   -0.88     28.73   
    81. D(O  16,C  13,C   9,H  14)    144.18 -0.001471    0.19    144.37   
    82. D(O  16,C  13,C   9,C   4)    -90.41  0.001401   -1.00    -91.41   
    83. D(H  18,N  17,C  13,C   9)     -9.25  0.000059   -0.65     -9.90   
    84. D(H  19,N  17,C  13,O  16)      2.56 -0.000724    1.76      4.32   
    85. D(H  19,N  17,C  13,C   9)   -175.85  0.000126   -0.93   -176.78   
    86. D(H  18,N  17,C  13,O  16)    169.16 -0.000791    2.04    171.20   
    ----------------------------------------------------------------------------

Geometry step timings:
Preparation and reading OPT file:      0.000 s ( 0.977 %)
Internal coordinates            :      0.000 s ( 1.282 %)
B/P matrices and projection     :      0.001 s (33.455 %)
Hessian update/contruction      :      0.000 s (11.416 %)
Making the step                 :      0.000 s (26.374 %)
Converting the step to Cartesian:      0.000 s ( 4.029 %)
Storing new data                :      0.000 s ( 1.221 %)
Checking convergence            :      0.000 s ( 1.526 %)
Final printing                  :      0.000 s (19.719 %)
Total time                      :      0.002 s

Time for energy+gradient        :      0.019 s
Time for complete geometry iter :      0.021 s

         *************************************************************
         *                GEOMETRY OPTIMIZATION CYCLE   2            *
         *************************************************************
---------------------------------
CARTESIAN COORDINATES (ANGSTROEM)
---------------------------------
  C    -0.031047   -0.090028    0.536980
  C     1.204736    0.806015    0.432448
  H    -0.220699   -0.308662    1.596650
  H    -1.922123    0.028654   -0.254608
  C     0.188607   -1.385556   -0.249204
  H    -1.538325    1.293317    0.679284
  O     1.023309    1.846509   -0.383526
  N    -1.165756    0.670703   -0.036014
  H     0.107297    1.754013   -0.742213
  C     1.213957   -2.330000    0.401144
  O     2.241260    0.601411    1.009952
  H     0.487185   -1.144139   -1.271415
  H    -0.768413   -1.909991   -0.316142
  C     2.446637   -2.503171   -0.466878
  H     1.512340   -1.981017    1.390922
  H     0.774330   -3.321925    0.529680
  O     2.552695   -3.390976   -1.291699
  N     3.433041   -1.612714   -0.242986
  H     3.305179   -0.798064    0.343601
  H     4.252732   -1.652990   -0.826030

----------------------------
CARTESIAN COORDINATES (A.U.)
----------------------------
  NO LB    ZA    FRAG    MASS        X           Y           Z
   0 C   6.0000    1    12.011   -0.058669   -0.170128    1.014746
   1 C   6.0000    1    12.011    2.276621    1.523148    0.817208
   2 H   1.0000    1     1.008   -0.417060   -0.583287    3.017230
   3 H   1.0000    1     1.008   -3.632287    0.054148   -0.481140
   4 C   6.0000    1    12.011    0.356416   -2.618322   -0.470928
   5 H   1.0000    1     1.008   -2.907014    2.444014    1.283661
   6 O   8.0000    1    15.999    1.933775    3.489396   -0.724760
   7 N   7.0000    1    14.007   -2.202959    1.267445   -0.068056
   8 H   1.0000    1     1.008    0.202761    3.314605   -1.402579
   9 C   6.0000    1    12.011    2.294047   -4.403062    0.758052
  10 O   8.0000    1    15.999    4.235368    1.136501    1.908532
  11 H   1.0000    1     1.008    0.920645   -2.162109   -2.402627
  12 H   1.0000    1     1.008   -1.452091   -3.609359   -0.597421
  13 C   6.0000    1    12.011    4.623474   -4.730307   -0.882272
  14 H   1.0000    1     1.008    2.857908   -3.743579    2.628461
  15 H   1.0000    1     1.008    1.463272   -6.277529    1.000950
  16 O   8.0000    1    15.999    4.823894   -6.408015   -2.440958
  17 N   7.0000    1    14.007    6.487508   -3.047588   -0.459178
  18 H   1.0000    1     1.008    6.245884   -1.508122    0.649312
  19 H   1.0000    1     1.008    8.036499   -3.123699   -1.560970

      -----------------------------------------------------------      
     |                   =====================                   |     
     |                           x T B                           |     
     |                   =====================                   |     
     |                         S. Grimme                         |     
     |          Mulliken Center for Theoretical Chemistry        |     
     |                    University of Bonn                     |     
      -----------------------------------------------------------      

   * xtb version 6.7.1 (edcfbbe) compiled by 'albert@albert-system' on 2024-07-22

   xtb is free software: you can redistribute it and/or modify it under
   the terms of the GNU Lesser General Public License as published by
   the Free Software Foundation, either version 3 of the License, or
   (at your option) any later version.
   
   xtb is distributed in the hope that it will be useful,
   but WITHOUT ANY WARRANTY; without even the implied warranty of
   MERCHANTABILITY or FITNESS FOR A PARTICULAR PURPOSE.  See the
   GNU Lesser General Public License for more details.
   
   Cite this work as:
   * C. Bannwarth, E. Caldeweyher, S. Ehlert, A. Hansen, P. Pracht,
     J. Seibert, S. Spicher, S. Grimme, WIREs Comput. Mol. Sci., 2020, 11,
     e01493. DOI: 10.1002/wcms.1493
   
   for GFN2-xTB:
   * C. Bannwarth, S. Ehlert and S. Grimme., J. Chem. Theory Comput., 2019,
     15, 1652-1671. DOI: 10.1021/acs.jctc.8b01176
   for GFN1-xTB:
   * S. Grimme, C. Bannwarth, P. Shushkov, J. Chem. Theory Comput., 2017,
     13, 1989-2009. DOI: 10.1021/acs.jctc.7b00118
   for GFN0-xTB:
   * P. Pracht, E. Caldeweyher, S. Ehlert, S. Grimme, ChemRxiv, 2019, preprint.
     DOI: 10.26434/chemrxiv.8326202.v1
   for GFN-FF:
   * S. Spicher and S. Grimme, Angew. Chem. Int. Ed., 2020, 59, 15665-15673.
     DOI: 10.1002/anie.202004239
   
   for ALPB and GBSA implicit solvation:
   * S. Ehlert, M. Stahn, S. Spicher, S. Grimme, J. Chem. Theory Comput.,
     2021, 17, 4250-4261. DOI: 10.1021/acs.jctc.1c00471
   
   for ddCOSMO and CPCM-X implicit solvation:
   * M. Stahn, S. Ehlert, S. Grimme, J. Phys. Chem. A,
     2023, XX, XXXX-XXXX. DOI: 10.1021/acs.jpca.3c04382
   
   for DFT-D4:
   * E. Caldeweyher, C. Bannwarth and S. Grimme, J. Chem. Phys., 2017,
     147, 034112. DOI: 10.1063/1.4993215
   * E. Caldeweyher, S. Ehlert, A. Hansen, H. Neugebauer, S. Spicher,
     C. Bannwarth and S. Grimme, J. Chem. Phys., 2019, 150, 154122.
     DOI: 10.1063/1.5090222
   * E. Caldeweyher, J.-M. Mewes, S. Ehlert and S. Grimme, Phys. Chem. Chem. Phys.
     2020, 22, 8499-8512. DOI: 10.1039/D0CP00502A
   
   for sTDA-xTB:
   * S. Grimme and C. Bannwarth, J. Chem. Phys., 2016, 145, 054103.
     DOI: 10.1063/1.4959605
   
   in the mass-spec context:
   * V. Asgeirsson, C. Bauer and S. Grimme, Chem. Sci., 2017, 8, 4879.
     DOI: 10.1039/c7sc00601b
   * J. Koopman and S. Grimme, ACS Omega 2019, 4, 12, 15120-15133.
     DOI: 10.1021/acsomega.9b02011
   
   for metadynamics refer to:
   * S. Grimme, J. Chem. Theory Comput., 2019, 155, 2847-2862
     DOI: 10.1021/acs.jctc.9b00143
   
   for SPH calculations refer to:
   * S. Spicher and S. Grimme, J. Chem. Theory Comput., 2021, 17, 1701-1714
     DOI: 10.1021/acs.jctc.0c01306
   
   for ONIOM refer to:
   * C. Plett, A. Katbashev, S. Ehlert, S. Grimme, M. Bursch,
     Phys. Chem. Chem. Phys., 2023, 25, 17860-17868. DOI: 10.1039/D3CP02178E
   
   for DIPRO refer to:
   * J. Kohn, N. Gildemeister, S. Grimme, D. Fazzi, A. Hansen,
     J. Chem. Phys., 2023, just accepted.
   
   for PTB refer to:
   * S. Grimme, M. Mueller, A. Hansen, J. Chem. Phys., 2023, 158, 124111.
     DOI: 10.1063/5.0137838
   
   with help from (in alphabetical order)
   P. Atkinson, C. Bannwarth, F. Bohle, G. Brandenburg, E. Caldeweyher
   M. Checinski, S. Dohm, S. Ehlert, S. Ehrlich, I. Gerasimov, C. Hölzer
   A. Katbashev, J. Kohn, J. Koopman, C. Lavigne, S. Lehtola, F. März, M. Müller,
   F. Musil, H. Neugebauer, J. Pisarek, C. Plett, P. Pracht, F. Pultar,
   J. Seibert, P. Shushkov, S. Spicher, M. Stahn, M. Steiner, T. Strunk,
   J. Stückrath, T. Rose, and J. Unsleber
   
 * started run on 2025/08/10 at 11:24:02.313     
   ID    Z sym.   atoms
    1    6 C      1, 2, 5, 10, 14
    2    1 H      3, 4, 6, 9, 12, 13, 15, 16, 19, 20
    3    8 O      7, 11, 17
    4    7 N      8, 18

           -------------------------------------------------
          |                Calculation Setup                |
           -------------------------------------------------

          program call               : /home/test/orca/orca_6_1_0_linux_x86-64_shared_openmpi418/otool_xtb n_XTB.xyz --grad -c 0 -u 0 -P 1 --namespace n --input n_XTB.input.tmp --acc 0.200000
          calculation namespace      : n
          coordinate file            : n_XTB.xyz
          omp threads                :                     1


           -------------------------------------------------
          |                 G F N 2 - x T B                 |
           -------------------------------------------------

        Reference                      10.1021/acs.jctc.8b01176
      * Hamiltonian:
        H0-scaling (s, p, d)           1.850000    2.230000    2.230000
        zeta-weighting                 0.500000
      * Dispersion:
        s8                             2.700000
        a1                             0.520000
        a2                             5.000000
        s9                             5.000000
      * Repulsion:
        kExp                           1.500000    1.000000
        rExp                           1.000000
      * Coulomb:
        alpha                          2.000000
        third order                    shell-resolved
        anisotropic                    true
        a3                             3.000000
        a5                             4.000000
        cn-shift                       1.200000
        cn-exp                         4.000000
        max-rad                        5.000000

q/qsh data taken from xtbrestart
CAMM data taken from xtbrestart

          ...................................................
          :                      SETUP                      :
          :.................................................:
          :  # basis functions                  50          :
          :  # atomic orbitals                  50          :
          :  # shells                           30          :
          :  # electrons                        58          :
          :  max. iterations                   250          :
          :  Hamiltonian                  GFN2-xTB          :
          :  restarted?                       true          :
          :  GBSA solvation                  false          :
          :  PC potential                    false          :
          :  electronic temp.          300.0000000     K    :
          :  accuracy                    0.2000000          :
          :  -> integral cutoff          0.3198970E+02      :
          :  -> integral neglect         0.2000000E-08      :
          :  -> SCF convergence          0.2000000E-06 Eh   :
          :  -> wf. convergence          0.2000000E-04 e    :
          :  Broyden damping             0.4000000          :
          :  net charge                          0          :
          :  unpaired electrons                  0          :
          ...................................................

 iter      E             dE          RMSdq      gap      omega  full diag
   1    -34.1932356 -0.341932E+02  0.216E-01    3.65       0.0  T
   2    -34.1933548 -0.119254E-03  0.130E-01    3.61       1.0  T
   3    -34.1933597 -0.486661E-05  0.597E-02    3.64       1.0  T
   4    -34.1933748 -0.150760E-04  0.783E-03    3.63       2.9  T
   5    -34.1933750 -0.195483E-06  0.414E-03    3.63       5.4  T
   6    -34.1933750 -0.259533E-07  0.152E-03    3.63      14.7  T
   7    -34.1933750 -0.244420E-08  0.411E-04    3.63      54.4  T
   8    -34.1933750 -0.357240E-09  0.130E-04    3.63     171.6  T
   9    -34.1933750 -0.474216E-10  0.490E-05    3.63     456.1  T

   *** convergence criteria satisfied after 9 iterations ***

         #    Occupation            Energy/Eh            Energy/eV
      -------------------------------------------------------------
         1        2.0000           -0.7529411             -20.4886
       ...           ...                  ...                  ...
        23        2.0000           -0.4764309             -12.9643
        24        2.0000           -0.4678523             -12.7309
        25        2.0000           -0.4613109             -12.5529
        26        2.0000           -0.4388353             -11.9413
        27        2.0000           -0.4199895             -11.4285
        28        2.0000           -0.4085997             -11.1186
        29        2.0000           -0.3874389             -10.5427 (HOMO)
        30                         -0.2540139              -6.9121 (LUMO)
        31                         -0.2018031              -5.4913
        32                         -0.0256990              -0.6993
        33                          0.0270467               0.7360
        34                          0.0358188               0.9747
       ...                                ...                  ...
        50                          0.6375193              17.3478
      -------------------------------------------------------------
                  HL-Gap            0.1334251 Eh            3.6307 eV
             Fermi-level           -0.3207264 Eh           -8.7274 eV

 SCC (total)                   0 d,  0 h,  0 min,  0.019 sec
 SCC setup                      ...        0 min,  0.000 sec (  0.723%)
 Dispersion                     ...        0 min,  0.000 sec (  0.482%)
 classical contributions        ...        0 min,  0.000 sec (  0.105%)
 integral evaluation            ...        0 min,  0.002 sec (  8.177%)
 iterations                     ...        0 min,  0.012 sec ( 61.774%)
 molecular gradient             ...        0 min,  0.005 sec ( 28.291%)
 printout                       ...        0 min,  0.000 sec (  0.372%)

         :::::::::::::::::::::::::::::::::::::::::::::::::::::
         ::                     SUMMARY                     ::
         :::::::::::::::::::::::::::::::::::::::::::::::::::::
         :: total energy             -33.851704882032 Eh    ::
         :: gradient norm              0.027185009767 Eh/a0 ::
         :: HOMO-LUMO gap              3.630680888527 eV    ::
         ::.................................................::
         :: SCC energy               -34.193288364276 Eh    ::
         :: -> isotropic ES            0.098076904021 Eh    ::
         :: -> anisotropic ES          0.000381349873 Eh    ::
         :: -> anisotropic XC          0.008252317619 Eh    ::
         :: -> dispersion             -0.014877015597 Eh    ::
         :: repulsion energy           0.341583482244 Eh    ::
         :: add. restraining           0.000000000000 Eh    ::
         :: total charge               0.000000000000 e     ::
         :::::::::::::::::::::::::::::::::::::::::::::::::::::


Property printout bound to 'properties.out'

           -------------------------------------------------
          | TOTAL ENERGY              -33.851704882032 Eh   |
          | GRADIENT NORM               0.027185009767 Eh/α |
          | HOMO-LUMO GAP               3.630680888527 eV   |
           -------------------------------------------------

------------------------------------------------------------------------
 * finished run on 2025/08/10 at 11:24:02.338     
------------------------------------------------------------------------
 total:
 * wall-time:     0 d,  0 h,  0 min,  0.025 sec
 *  cpu-time:     0 d,  0 h,  0 min,  0.024 sec
 * ratio c/w:     0.953 speedup
 SCF:
 * wall-time:     0 d,  0 h,  0 min,  0.019 sec
 *  cpu-time:     0 d,  0 h,  0 min,  0.018 sec
 * ratio c/w:     0.942 speedup


-------------------------   --------------------
FINAL SINGLE POINT ENERGY       -33.851704882030
-------------------------   --------------------


-------------
DIPOLE MOMENT
-------------
                                X             Y             Z
Total Dipole Moment    :     -2.02200       0.98500       0.72800
                        -----------------------------------------
Magnitude (a.u.)       :      2.36404
Magnitude (Debye)      :      6.00892


------------------
CARTESIAN GRADIENT
------------------

   1   C   :    0.009131070   -0.006658497    0.000007539
   2   C   :   -0.001711840   -0.009998473    0.005067596
   3   H   :   -0.004004472    0.003755451   -0.000566881
   4   H   :   -0.001142553   -0.000775408    0.003514973
   5   C   :    0.001126149    0.003643303   -0.000899178
   6   H   :   -0.001451061   -0.001320744    0.002461181
   7   O   :   -0.002127329    0.009558708   -0.004544279
   8   N   :   -0.000589065    0.005710081   -0.006905281
   9   H   :   -0.000538053   -0.002470504    0.000342653
  10   C   :    0.000678663    0.002865543   -0.004347445
  11   O   :    0.004335514   -0.000547823    0.000495189
  12   H   :   -0.000771027   -0.000621534   -0.000240810
  13   H   :    0.000467513   -0.001493940   -0.000036050
  14   C   :   -0.007349579    0.003767790    0.005936228
  15   H   :    0.000128074   -0.002815321    0.001641423
  16   H   :    0.000206124   -0.000849911    0.001692915
  17   O   :    0.002447208   -0.003154918   -0.003292596
  18   N   :    0.001115815   -0.001902551   -0.000990881
  19   H   :    0.000057132    0.002790917    0.000214608
  20   H   :   -0.000008282    0.000517831    0.000449097

Difference to translation invariance:
           :    0.0000000000   -0.0000000000   -0.0000000000

Difference to rotation invariance:
           :    0.0000001296   -0.0000001759   -0.0000001249

Norm of the Cartesian gradient     ...    0.0271850098
RMS gradient                       ...    0.0035095697
MAX gradient                       ...    0.0099984731
------------------------------------------------------------------------------
                         ORCA GEOMETRY RELAXATION STEP
------------------------------------------------------------------------------

Reading the OPT-File                    .... done
Getting information on internals        .... done
Copying old internal coords+grads       .... done
Making the new internal coordinates     .... (2022 redundants) done
Validating the new internal coordinates .... (2022 redundants) done
Calculating the B-matrix                .... done
Calculating the G,G- and P matrices     .... done
Transforming gradient to internals      .... done
Projecting the internal gradient        .... done
Number of atoms                         ....  20
Number of internal coordinates          ....  86
Current Energy                          ....   -33.851704882 Eh
Current gradient norm                   ....     0.027185010 Eh/bohr
Maximum allowed component of the step   ....  0.300
Current trust radius                    ....  0.300
Updating the Hessian (BFGS)             .... done
Forming the augmented Hessian           .... done
Diagonalizing the augmented Hessian     .... done
Last element of RFO vector              ....  0.966149449
Lowest eigenvalues of augmented Hessian:
 -0.002572993  0.010794660  0.010869245  0.011716192  0.013186516
Length of the computed step             ....  0.267021866
The final length of the internal step   ....  0.267021866
Converting the step to Cartesian space:
 Initial RMS(Int)=    0.0287937083
Transforming coordinates:
 Iter   0:  RMS(Cart)=    0.0437366516 RMS(Int)=    0.0289088288
 Iter   5:  RMS(Cart)=    0.0000000347 RMS(Int)=    0.0000000347
done
Storing new coordinates                 .... done
The predicted energy change is          ....    -0.001378225
Previously predicted energy change      ....    -0.003645835
Actually observed energy change         ....    -0.004595991
Ratio of predicted to observed change   ....     1.260614095
New trust radius                        ....     0.300000000

                                .--------------------.
          ----------------------|Geometry convergence|-------------------------
          Item                value                   Tolerance       Converged
          ---------------------------------------------------------------------
          Energy change      -0.0045959912            0.0000050000      NO
          RMS gradient        0.0019034366            0.0001000000      NO
          MAX gradient        0.0093609864            0.0003000000      NO
          RMS step            0.0287937083            0.0020000000      NO
          MAX step            0.0958309062            0.0040000000      NO
          -------------------------------------------------------------------------
          ........................................................
          Max(Bonds)      0.0435      Max(Angles)    2.44
          Max(Dihed)        5.49      Max(Improp)    0.00
          ---------------------------------------------------------------------

    ---------------------------------------------------------------------------
                         Redundant Internal Coordinates
                            (Angstroem and degrees)

        Definition                    Value    dE/dq     Step     New-Value
    ----------------------------------------------------------------------------
     1. B(C   1,C   0)                1.5300 -0.000814  0.0009    1.5309   
     2. B(H   2,C   0)                1.0985 -0.000603  0.0020    1.1005   
     3. B(C   4,C   0)                1.5313 -0.001406  0.0027    1.5340   
     4. B(O   6,C   1)                1.3347  0.009361 -0.0158    1.3188   
     5. B(N   7,H   5)                1.0189  0.001451 -0.0045    1.0144   
     6. B(N   7,H   3)                1.0159  0.000584 -0.0028    1.0131   
     7. B(N   7,C   0)                1.4814  0.004772 -0.0125    1.4689   
     8. B(H   8,O   6)                0.9881 -0.000234 -0.0009    0.9872   
     9. B(H   8,N   7)                1.8146 -0.001487  0.0289    1.8435   
    10. B(C   9,C   4)                1.5383 -0.001051  0.0036    1.5418   
    11. B(O  10,C   1)                1.2041  0.003439 -0.0064    1.1976   
    12. B(H  11,C   4)                1.0919 -0.000123 -0.0009    1.0910   
    13. B(H  12,C   4)                1.0933  0.000310 -0.0015    1.0918   
    14. B(C  13,C   9)                1.5175 -0.003540  0.0082    1.5257   
    15. B(H  14,C   9)                1.0911  0.000624 -0.0022    1.0889   
    16. B(H  15,C   9)                1.0926  0.000888 -0.0028    1.0898   
    17. B(O  16,C  13)                1.2165  0.004748 -0.0057    1.2108   
    18. B(N  17,C  13)                1.3476  0.001535 -0.0044    1.3432   
    19. B(H  18,O  10)                1.8800 -0.001407  0.0435    1.9236   
    20. B(H  18,N  17)                1.0120  0.001131 -0.0040    1.0079   
    21. B(H  19,N  17)                1.0067 -0.000288 -0.0004    1.0063   
    22. A(C   1,C   0,C   4)          110.15 -0.000028   -0.67    109.48   
    23. A(C   4,C   0,N   7)          110.23  0.000807   -0.20    110.03   
    24. A(C   1,C   0,N   7)          106.95  0.000978   -0.21    106.74   
    25. A(H   2,C   0,N   7)          110.06 -0.003892    2.44    112.50   
    26. A(C   1,C   0,H   2)          108.78  0.000084   -0.13    108.65   
    27. A(H   2,C   0,C   4)          110.59  0.001981   -1.14    109.45   
    28. A(C   0,C   1,O  10)          124.26  0.002769   -0.87    123.39   
    29. A(O   6,C   1,O  10)          122.87 -0.000394   -0.22    122.65   
    30. A(C   0,C   1,O   6)          112.86 -0.002362    0.94    113.81   
    31. A(C   0,C   4,H  11)          109.44  0.000720   -0.43    109.01   
    32. A(C   0,C   4,C   9)          113.45 -0.001116    0.34    113.79   
    33. A(H  11,C   4,H  12)          106.74  0.000105    0.21    106.95   
    34. A(C   9,C   4,H  12)          108.35 -0.001917    0.81    109.16   
    35. A(C   0,C   4,H  12)          108.16  0.001611   -0.50    107.66   
    36. A(C   9,C   4,H  11)          110.44  0.000657   -0.41    110.04   
    37. A(C   1,O   6,H   8)          105.96 -0.002124    0.73    106.69   
    38. A(H   3,N   7,H   5)          105.37 -0.000661    1.78    107.15   
    39. A(C   0,N   7,H   5)          108.80 -0.002307    1.29    110.10   
    40. A(C   0,N   7,H   3)          109.21 -0.002483    1.30    110.51   
    41. A(H  14,C   9,H  15)          107.08 -0.002094    1.10    108.18   
    42. A(C  13,C   9,H  15)          106.89  0.000469   -0.01    106.88   
    43. A(C   4,C   9,H  15)          109.81  0.000895   -0.27    109.55   
    44. A(C  13,C   9,H  14)          109.47 -0.000221   -0.00    109.46   
    45. A(C   4,C   9,H  14)          111.68  0.001495   -0.78    110.90   
    46. A(C   4,C   9,C  13)          111.70 -0.000649    0.04    111.74   
    47. A(O  16,C  13,N  17)          122.08 -0.003294    0.68    122.76   
    48. A(C   9,C  13,N  17)          115.10  0.002049   -0.46    114.63   
    49. A(C   9,C  13,O  16)          122.82  0.001236   -0.27    122.55   
    50. A(H  18,N  17,H  19)          118.09 -0.001285    0.51    118.60   
    51. A(C  13,N  17,H  19)          118.25 -0.000074    0.06    118.31   
    52. A(C  13,N  17,H  18)          122.39  0.001293   -0.33    122.06   
    53. D(O  10,C   1,C   0,H   2)     47.45  0.001186   -1.50     45.95   
    54. D(O   6,C   1,C   0,H   2)   -133.13  0.002723   -5.49   -138.62   
    55. D(O   6,C   1,C   0,N   7)    -14.28 -0.001297   -2.79    -17.07   
    56. D(O   6,C   1,C   0,C   4)    105.51  0.000243   -3.55    101.96   
    57. D(O  10,C   1,C   0,C   4)    -73.91 -0.001294    0.44    -73.47   
    58. D(C   9,C   4,C   0,H   2)    -49.75 -0.001025    0.14    -49.61   
    59. D(H  11,C   4,C   0,N   7)     64.48  0.001408   -1.44     63.04   
    60. D(H  11,C   4,C   0,H   2)   -173.58 -0.001630    0.75   -172.83   
    61. D(H  11,C   4,C   0,C   1)    -53.31 -0.000267   -0.64    -53.94   
    62. D(C   9,C   4,C   0,C   1)     70.53  0.000338   -1.25     69.28   
    63. D(C   9,C   4,C   0,N   7)   -171.69  0.002013   -2.05   -173.74   
    64. D(H   8,O   6,C   1,O  10)    178.01 -0.000320    0.63    178.64   
    65. D(H   8,O   6,C   1,C   0)     -1.42 -0.001854    4.56      3.14   
    66. D(H   3,N   7,C   0,C   1)    162.36  0.002775   -3.87    158.49   
    67. D(H   3,N   7,C   0,H   2)    -79.63  0.001339   -2.85    -82.48   
    68. D(H   5,N   7,C   0,C   4)    157.14 -0.001580    0.56    157.69   
    69. D(H   5,N   7,C   0,H   2)     34.89 -0.002011    0.51     35.41   
    70. D(H   5,N   7,C   0,C   1)    -83.12 -0.000574   -0.51    -83.62   
    71. D(H   3,N   7,C   0,C   4)     42.61  0.001770   -2.81     39.81   
    72. D(H  14,C   9,C   4,H  12)   -112.11  0.000104   -1.62   -113.73   
    73. D(H  14,C   9,C   4,H  11)    131.30  0.000729   -2.12    129.18   
    74. D(H  14,C   9,C   4,C   0)      8.01  0.000098   -1.49      6.52   
    75. D(C  13,C   9,C   4,H  12)    124.92 -0.000227   -1.07    123.85   
    76. D(C  13,C   9,C   4,H  11)      8.34  0.000398   -1.56      6.77   
    77. D(C  13,C   9,C   4,C   0)   -114.95 -0.000233   -0.94   -115.89   
    78. D(N  17,C  13,C   9,H  14)    -34.51 -0.001082    3.08    -31.43   
    79. D(N  17,C  13,C   9,C   4)     89.70  0.000223    2.10     91.81   
    80. D(O  16,C  13,C   9,H  15)     28.73  0.000689    2.33     31.05   
    81. D(O  16,C  13,C   9,H  14)    144.37 -0.001632    3.61    147.99   
    82. D(O  16,C  13,C   9,C   4)    -91.41 -0.000327    2.64    -88.77   
    83. D(H  18,N  17,C  13,C   9)     -9.90 -0.000844    1.85     -8.06   
    84. D(H  19,N  17,C  13,O  16)      4.32  0.000158    0.04      4.36   
    85. D(H  19,N  17,C  13,C   9)   -176.78 -0.000332    0.57   -176.22   
    86. D(H  18,N  17,C  13,O  16)    171.20 -0.000353    1.32    172.52   
    ----------------------------------------------------------------------------

Geometry step timings:
Preparation and reading OPT file:      0.000 s ( 0.803 %)
Internal coordinates            :      0.000 s ( 1.405 %)
B/P matrices and projection     :      0.001 s (34.916 %)
Hessian update/contruction      :      0.000 s (10.702 %)
Making the step                 :      0.000 s (24.883 %)
Converting the step to Cartesian:      0.000 s ( 3.612 %)
Storing new data                :      0.000 s ( 1.204 %)
Checking convergence            :      0.000 s ( 2.207 %)
Final printing                  :      0.000 s (20.268 %)
Total time                      :      0.001 s

Time for energy+gradient        :      0.028 s
Time for complete geometry iter :      0.030 s

         *************************************************************
         *                GEOMETRY OPTIMIZATION CYCLE   3            *
         *************************************************************
---------------------------------
CARTESIAN COORDINATES (ANGSTROEM)
---------------------------------
  C    -0.055921   -0.088395    0.559802
  C     1.184611    0.802644    0.455652
  H    -0.227315   -0.329363    1.619796
  H    -1.910279    0.036364   -0.317614
  C     0.178679   -1.384310   -0.226596
  H    -1.564230    1.298729    0.653964
  O     1.058204    1.792244   -0.406916
  N    -1.168906    0.665237   -0.032625
  H     0.136154    1.747361   -0.756789
  C     1.227681   -2.316865    0.411364
  O     2.208037    0.577958    1.035732
  H     0.473025   -1.132752   -1.246591
  H    -0.776029   -1.910035   -0.291312
  C     2.449131   -2.490520   -0.486209
  H     1.542422   -1.940145    1.383305
  H     0.796330   -3.307395    0.554018
  O     2.519633   -3.354785   -1.331235
  N     3.442566   -1.616451   -0.255179
  H     3.332212   -0.834527    0.371287
  H     4.250937   -1.643605   -0.853909

----------------------------
CARTESIAN COORDINATES (A.U.)
----------------------------
  NO LB    ZA    FRAG    MASS        X           Y           Z
   0 C   6.0000    1    12.011   -0.105675   -0.167043    1.057873
   1 C   6.0000    1    12.011    2.238591    1.516777    0.861057
   2 H   1.0000    1     1.008   -0.429563   -0.622407    3.060972
   3 H   1.0000    1     1.008   -3.609905    0.068717   -0.600203
   4 C   6.0000    1    12.011    0.337654   -2.615967   -0.428205
   5 H   1.0000    1     1.008   -2.955965    2.454241    1.235812
   6 O   8.0000    1    15.999    1.999716    3.386850   -0.768959
   7 N   7.0000    1    14.007   -2.208913    1.257116   -0.061653
   8 H   1.0000    1     1.008    0.257293    3.302033   -1.430123
   9 C   6.0000    1    12.011    2.319982   -4.378239    0.777366
  10 O   8.0000    1    15.999    4.172585    1.092182    1.957250
  11 H   1.0000    1     1.008    0.893888   -2.140591   -2.355716
  12 H   1.0000    1     1.008   -1.466483   -3.609443   -0.550500
  13 C   6.0000    1    12.011    4.628188   -4.706400   -0.918801
  14 H   1.0000    1     1.008    2.914755   -3.666343    2.614067
  15 H   1.0000    1     1.008    1.504845   -6.250071    1.046942
  16 O   8.0000    1    15.999    4.761416   -6.339624   -2.515670
  17 N   7.0000    1    14.007    6.505507   -3.054649   -0.482219
  18 H   1.0000    1     1.008    6.296969   -1.577027    0.701630
  19 H   1.0000    1     1.008    8.033106   -3.105964   -1.613653

      -----------------------------------------------------------      
     |                   =====================                   |     
     |                           x T B                           |     
     |                   =====================                   |     
     |                         S. Grimme                         |     
     |          Mulliken Center for Theoretical Chemistry        |     
[...]
        28        2.0000           -0.4032483             -10.9729
        29        2.0000           -0.3929288             -10.6921 (HOMO)
        30                         -0.2383004              -6.4845 (LUMO)
        31                         -0.2033690              -5.5340
        32                         -0.0022870              -0.0622
        33                          0.0322733               0.8782
        34                          0.0503851               1.3710
       ...                                ...                  ...
        50                          0.6431348              17.5006
      -------------------------------------------------------------
                  HL-Gap            0.1546284 Eh            4.2077 eV
             Fermi-level           -0.3156146 Eh           -8.5883 eV

 SCC (total)                   0 d,  0 h,  0 min,  0.011 sec
 SCC setup                      ...        0 min,  0.000 sec (  1.478%)
 Dispersion                     ...        0 min,  0.000 sec (  1.007%)
 classical contributions        ...        0 min,  0.000 sec (  0.235%)
 integral evaluation            ...        0 min,  0.002 sec ( 17.452%)
 iterations                     ...        0 min,  0.005 sec ( 48.522%)
 molecular gradient             ...        0 min,  0.003 sec ( 30.424%)
 printout                       ...        0 min,  0.000 sec (  0.736%)

         :::::::::::::::::::::::::::::::::::::::::::::::::::::
         ::                     SUMMARY                     ::
         :::::::::::::::::::::::::::::::::::::::::::::::::::::
         :: total energy             -33.855238372012 Eh    ::
         :: gradient norm              0.000245006331 Eh/a0 ::
         :: HOMO-LUMO gap              4.207653918803 eV    ::
         ::.................................................::
         :: SCC energy               -34.202195181938 Eh    ::
         :: -> isotropic ES            0.097860804827 Eh    ::
         :: -> anisotropic ES          0.000211524250 Eh    ::
         :: -> anisotropic XC          0.008238582444 Eh    ::
         :: -> dispersion             -0.015712637691 Eh    ::
         :: repulsion energy           0.346956809925 Eh    ::
         :: add. restraining           0.000000000000 Eh    ::
         :: total charge              -0.000000000000 e     ::
         :::::::::::::::::::::::::::::::::::::::::::::::::::::


Property printout bound to 'properties.out'

           -------------------------------------------------
          | TOTAL ENERGY              -33.855238372012 Eh   |
          | GRADIENT NORM               0.000245006331 Eh/α |
          | HOMO-LUMO GAP               4.207653918803 eV   |
           -------------------------------------------------

------------------------------------------------------------------------
 * finished run on 2025/08/10 at 11:24:02.949     
------------------------------------------------------------------------
 total:
 * wall-time:     0 d,  0 h,  0 min,  0.017 sec
 *  cpu-time:     0 d,  0 h,  0 min,  0.016 sec
 * ratio c/w:     0.935 speedup
 SCF:
 * wall-time:     0 d,  0 h,  0 min,  0.011 sec
 *  cpu-time:     0 d,  0 h,  0 min,  0.010 sec
 * ratio c/w:     0.903 speedup


-------------------------   --------------------
FINAL SINGLE POINT ENERGY       -33.855238372010
-------------------------   --------------------


-------------
DIPOLE MOMENT
-------------
                                X             Y             Z
Total Dipole Moment    :     -1.50100      -0.07500       1.05700
                        -----------------------------------------
Magnitude (a.u.)       :      1.83736
Magnitude (Debye)      :      4.67019

                                *** OPTIMIZATION RUN DONE ***

		     ------------------------------
			                   _   
			                  | |  
			  __ _  ___   __ _| |_ 
			 / _` |/ _ \ / _` | __|
			| (_| | (_) | (_| | |_ 
			 \__, |\___/ \__,_|\__|
			 __/ |                
			|___/                 

		      A Global Optimizer Algorithm
		     ------------------------------

Global parameters
-----------------
  GOAT version                               ... default
  Minimum global steps                       ... 3
  Number of base workers                     ... 4
  Split workers by                           ... 2
  Final number of workers                    ... 8
  Number of available CPUs                   ... 1
  Parameter list (worker : temperature)      ...  0 : 2903.97,  1 : 1451.98, 
                                                  2 :  725.99,  3 :  363.00, 
                                                  4 : 2903.97,  5 : 1451.98, 
                                                  6 :  725.99,  7 :  363.00 
  GradComp (mean : sigma)                    ... 1.00 : 0.50
  Number of fragments                        ... 1
  Number of atoms                            ... 20
  Flexibility parameter                      ... 0.71
  Optimizations per global step              ... 248
  Optimizations per worker                   ... 31

Filtering criteria
------------------
  RMSD                                       ... 0.125 Angs (atom. pos.)
  EnDiff                                     ... 0.100 kcal/mol
  RotConst                                   ... 1.00-2.50 %
  Maximum Conf. Energy                       ... 6.000 kcal/mol

Thermodynamics
--------------
  Ensemble temperature                       ... 298.15 K
  Degeneracy of conformers                   ... 1
  *No rotamers will be included in Gconf

------------------------------------------------------------------------------
   Iter  MinTemp     MaxEn       GradComp    NOpt   NProcs    Output
------------------------------------------------------------------------------
   0     2903.97     60.00    1.00 : 0.50      31        1    n.goat.0.0.out
   1     1451.98     60.00    1.00 : 0.50      31        1    n.goat.0.1.out
   2      725.99     60.00    1.00 : 0.50      31        1    n.goat.0.2.out
   3      363.00     60.00    1.00 : 0.50      31        1    n.goat.0.3.out
   4     2903.97     60.00    1.00 : 0.50      31        1    n.goat.0.4.out
   5     1451.98     60.00    1.00 : 0.50      31        1    n.goat.0.5.out
   6      725.99     60.00    1.00 : 0.50      31        1    n.goat.0.6.out
   7      363.00     60.00    1.00 : 0.50      31        1    n.goat.0.7.out

			     GOAT Global Iter 1
		Iter    Min En       Sconf       Gconf   
		        Hartree      cal/(molK)  kcal/mol
		=========================================

		   1    -33.860762   4.313       -0.618

   0     2903.97     60.00    1.00 : 0.50      31        1    n.goat.1.0.out
   1     1451.98     60.00    1.00 : 0.50      31        1    n.goat.1.1.out
   2      725.99     60.00    1.00 : 0.50      31        1    n.goat.1.2.out
   3      363.00     60.00    1.00 : 0.50      31        1    n.goat.1.3.out
   4     2903.97     60.00    1.00 : 0.50      31        1    n.goat.1.4.out
   5     1451.98     60.00    1.00 : 0.50      31        1    n.goat.1.5.out
   6      725.99     60.00    1.00 : 0.50      31        1    n.goat.1.6.out
   7      363.00     60.00    1.00 : 0.50      31        1    n.goat.1.7.out

			     GOAT Global Iter 2
		Iter    Min En       Sconf       Gconf   
		        Hartree      cal/(molK)  kcal/mol
		=========================================

		   1    -33.860762   4.313       -0.618
		   2    -33.860762   5.872       -0.860

   0     2903.97     60.00    1.00 : 0.50      31        1    n.goat.2.0.out
   1     1451.98     60.00    1.00 : 0.50      31        1    n.goat.2.1.out
   2      725.99     60.00    1.00 : 0.50      31        1    n.goat.2.2.out
   3      363.00     60.00    1.00 : 0.50      31        1    n.goat.2.3.out
   4     2903.97     60.00    1.00 : 0.50      31        1    n.goat.2.4.out
   5     1451.98     60.00    1.00 : 0.50      31        1    n.goat.2.5.out
   6      725.99     60.00    1.00 : 0.50      31        1    n.goat.2.6.out
   7      363.00     60.00    1.00 : 0.50      31        1    n.goat.2.7.out

			     GOAT Global Iter 3
		Iter    Min En       Sconf       Gconf   
		        Hartree      cal/(molK)  kcal/mol
		=========================================

		   1    -33.860762   4.313       -0.618
		   2    -33.860762   5.872       -0.860
		   3    -33.860762   6.080       -0.923

		Global minimum found!
		Writing structure to n.globalminimum.xyz

		# Final ensemble info #
		Conformer     Energy     Degen.   % total   % cumul.  
		              (kcal/mol)
		------------------------------------------------------
		        0     0.000	     1      21.06      21.06
		        1     0.528	     1       8.64      29.70
		        2     0.557	     1       8.22      37.92
		        3     0.579	     1       7.92      45.84
		        4     0.654	     1       6.99      52.83
		        5     0.707	     1       6.39      59.22
		        6     0.899	     1       4.62      63.84
		        7     0.902	     1       4.60      68.44
		        8     1.000	     1       3.89      72.33
		        9     1.248	     1       2.56      74.89
		       10     1.254	     1       2.54      77.43
		       11     1.299	     1       2.35      79.78
		       12     1.359	     1       2.13      81.90
		       13     1.370	     1       2.09      83.99
		       14     1.645	     1       1.31      85.30
		       15     1.738	     1       1.12      86.42
		       16     1.846	     1       0.93      87.35
		       17     1.901	     1       0.85      88.20
		       18     1.928	     1       0.81      89.02
		       19     1.983	     1       0.74      89.76
		       20     2.014	     1       0.70      90.46
		       21     2.063	     1       0.65      91.11
		       22     2.217	     1       0.50      91.61
		       23     2.244	     1       0.48      92.09
		       24     2.257	     1       0.47      92.55
		       25     2.310	     1       0.43      92.98
		       26     2.408	     1       0.36      93.34
		       27     2.428	     1       0.35      93.69
		       28     2.462	     1       0.33      94.02
		       29     2.539	     1       0.29      94.31
		       30     2.569	     1       0.28      94.59
		       31     2.606	     1       0.26      94.85
		       32     2.634	     1       0.25      95.09
		       33     2.740	     1       0.21      95.30
		       34     2.750	     1       0.20      95.50
		       35     2.766	     1       0.20      95.70
		       36     2.799	     1       0.19      95.89
		       37     2.804	     1       0.19      96.07
		       38     2.810	     1       0.18      96.26
		       39     2.810	     1       0.18      96.44
		       40     2.889	     1       0.16      96.60
		       41     2.937	     1       0.15      96.75
		       42     2.974	     1       0.14      96.89
		       43     2.974	     1       0.14      97.03
		       44     2.986	     1       0.14      97.16
		       45     3.059	     1       0.12      97.28
		       46     3.070	     1       0.12      97.40
		       47     3.085	     1       0.12      97.52
		       48     3.154	     1       0.10      97.62
		       49     3.154	     1       0.10      97.72
		       50     3.217	     1       0.09      97.81
		       51     3.229	     1       0.09      97.90
		       52     3.240	     1       0.09      97.99
		       53     3.271	     1       0.08      98.08
		       54     3.303	     1       0.08      98.16
		       55     3.339	     1       0.08      98.23
		       56     3.354	     1       0.07      98.31
		       57     3.355	     1       0.07      98.38
		       58     3.389	     1       0.07      98.45
		       59     3.404	     1       0.07      98.52
		       60     3.413	     1       0.07      98.58
		       61     3.448	     1       0.06      98.64
		       62     3.463	     1       0.06      98.71
		       63     3.466	     1       0.06      98.77
		       64     3.481	     1       0.06      98.83
		       65     3.498	     1       0.06      98.88
		       66     3.512	     1       0.06      98.94
		       67     3.595	     1       0.05      98.99
		       68     3.603	     1       0.05      99.04
		       69     3.605	     1       0.05      99.08
		       70     3.606	     1       0.05      99.13
		       71     3.646	     1       0.04      99.18
		       72     3.755	     1       0.04      99.21
		       73     3.790	     1       0.04      99.25
		       74     3.814	     1       0.03      99.28
		       75     3.862	     1       0.03      99.31
		       76     3.887	     1       0.03      99.34
		       77     3.934	     1       0.03      99.37
		       78     3.943	     1       0.03      99.40
		       79     3.965	     1       0.03      99.42
		       80     3.973	     1       0.03      99.45
		       81     3.978	     1       0.03      99.48
		       82     3.995	     1       0.02      99.50
		       83     4.054	     1       0.02      99.52
		       84     4.075	     1       0.02      99.54
		       85     4.076	     1       0.02      99.57
		       86     4.091	     1       0.02      99.59
		       87     4.097	     1       0.02      99.61
		       88     4.106	     1       0.02      99.63
		       89     4.238	     1       0.02      99.64
		       90     4.248	     1       0.02      99.66
		       91     4.264	     1       0.02      99.68
		       92     4.292	     1       0.02      99.69
		       93     4.305	     1       0.01      99.71
		       94     4.314	     1       0.01      99.72
		       95     4.319	     1       0.01      99.74
		       96     4.323	     1       0.01      99.75
		       97     4.329	     1       0.01      99.76
		       98     4.330	     1       0.01      99.78
		       99     4.332	     1       0.01      99.79
		      100     4.336	     1       0.01      99.81
		      101     4.387	     1       0.01      99.82
		      102     4.427	     1       0.01      99.83
		      103     4.427	     1       0.01      99.84
		      104     4.433	     1       0.01      99.85
		      105     4.635	     1       0.01      99.86
		      106     4.643	     1       0.01      99.87
		      107     4.663	     1       0.01      99.88
		      108     4.754	     1       0.01      99.89
		      109     4.756	     1       0.01      99.89
		      110     4.818	     1       0.01      99.90
		      111     4.836	     1       0.01      99.91
		      112     4.840	     1       0.01      99.91
		      113     4.856	     1       0.01      99.92
		      114     4.881	     1       0.01      99.92
		      115     4.900	     1       0.01      99.93
		      116     4.903	     1       0.01      99.93
		      117     4.932	     1       0.01      99.94
		      118     4.983	     1       0.00      99.94
		      119     5.003	     1       0.00      99.95
		      120     5.007	     1       0.00      99.95
		      121     5.021	     1       0.00      99.96
		      122     5.066	     1       0.00      99.96
		      123     5.076	     1       0.00      99.96
		      124     5.086	     1       0.00      99.97
		      125     5.133	     1       0.00      99.97
		      126     5.147	     1       0.00      99.98
		      127     5.212	     1       0.00      99.98
		      128     5.251	     1       0.00      99.98
		      129     5.297	     1       0.00      99.98
		      130     5.315	     1       0.00      99.99
		      131     5.316	     1       0.00      99.99
		      132     5.383	     1       0.00      99.99
		      133     5.414	     1       0.00      99.99
		      134     5.446	     1       0.00     100.00
		      135     5.632	     1       0.00     100.00
		      136     5.739	     1       0.00     100.00

		Conformers below 3 kcal/mol: 45
		Lowest energy conformer    : -33.860762 Eh
		Sconf at 298.15 K          :  6.08 cal/(molK)
		Gconf at 298.15 K          : -0.92 kcal/mol

		Writing final ensemble to n.finalensemble.xyz

--------------------------------
SUGGESTED CITATIONS FOR THIS RUN
--------------------------------

Below you find a list of papers that are relevant to this ORCA run
We neither can nor want to force you to cite these papers, but we appreciate if you do
You receive ORCA, which is the product of decades of hard work by many enthusiastic individuals, for free
The only thing we kindly ask in return is that you cite our papers,
We deeply appreciate it, if you show your appreciation for ORCA by not just citing the generic ORCA reference.

Please note that relegating all ORCA citations to the supporting information does *not* help us.
SI sections are not indexed - citations you put there will not count into any citation statistics
But we need these citations in order to attract the funding resources that allow us to do what we are doing

Therefore, if you are a happy ORCA user, please consider citing a few of the papers listed below in the main body of your paper

In addition to the list printed below, the program has created the file n.bibtex that contains the list in bibtex format
You can import this file easily into all common literature databanks and citation aid programs


List of essential papers. We consider these as the minimum necessary citations

  1. Bannwarth, C.; Ehlert, S.; Grimme, S.
     GFN2-xTB—An Accurate and Broadly Parametrized Self-Consistent Tight-Binding Quantum Chemical Method with Multipole Electrostatics and Density-Dependent Dispersion Contributions
     J. Chem. Theory Comput. 2019 15(3), 1652-1671
     doi.org/10.1021/acs.jctc.8b01176
  2. Neese, F.
     Software update: the ORCA program system, version 6.0
     WIRES Comput. Molec. Sci. 2025 15(1), e70019
     doi.org/10.1002/wcms.7019
  3. de Souza, B.
     GOAT: A Global Optimization Algorithm for Molecules and Atomic Clusters
     Angewandte Chemie 2025 64(18), e202500393
     doi.org/10.1002/anie.202500393

List of papers to cite with high priority. The work reported in these papers was absolutely
necessary for this run to complete.
Our perspective: the developers of density functionals and basis sets usually get cited in chemistry papers
Good! But without the algorithms to do something with them, the functionals or basis sets would not do anything.
Hence, in our opinion, the algorithm design and method developments papers are equally worthy of getting cited

  1. Bannwarth, C.; Caldeweyher, E.; Ehlert, S.; Hansen, A.; Pracht, P.; Seibert, J.; Spicher, S.; Grimme, S.
     Extended tight-binding quantum chemistry methods
     WIRES Comput. Molec. Sci. 2020 11(2), e1493
     doi.org/10.1002/wcms.1493

List of suggested additional citations. These are papers that are important in the 'surrounding' of 
of this run, or papers that preceded the highly important papers. If you like your results we are grateful for a citation.

  1. Neese, F.
     The ORCA program system
     WIRES Comput. Molec. Sci. 2012 2(1), 73-78
     doi.org/10.1002/wcms.81
  2. Neese, F.
     Software update: the ORCA program system, version 4.0
     WIRES Comput. Molec. Sci. 2018 8(1), 1-6
     doi.org/10.1002/wcms.1327
  3. Neese, F.; Wennmohs, F.; Becker, U.; Riplinger, C.
     The ORCA quantum chemistry program package
     J. Chem. Phys. 2020 152(22), 224108
     doi.org/10.1063/5.0004608
  4. Neese, F.
     Software update: The ORCA program system—Version 5.0
     WIRES Comput. Molec. Sci. 2022 12(1), e1606
     doi.org/10.1002/wcms.1606

List of optional additional citations

  1. Neese, F.
     Approximate second-order SCF convergence for spin unrestricted wavefunctions
     Chem. Phys. Lett. 2000 325(1-3), 93-98
     doi.org/10.1016/s0009-2614(00)00662-x

Timings for individual modules:

Sum of individual times          ...      911.158 sec (=  15.186 min)
Geometry relaxation              ...        0.051 sec (=   0.001 min)   0.0 %
GOAT                             ...      910.539 sec (=  15.176 min)  99.9 %
XTB module                       ...        0.568 sec (=   0.009 min)   0.1 %
                             ****ORCA TERMINATED NORMALLY****
TOTAL RUN TIME: 0 days 0 hours 15 minutes 11 seconds 246 msec
