
                                 *****************
                                 * O   R   C   A *
                                 *****************

                                            #,                                       
                                            ###                                      
                                            ####                                     
                                            #####                                    
                                            ######                                   
                                           ########,                                 
                                     ,,################,,,,,                         
                               ,,#################################,,                 
                          ,,##########################################,,             
                       ,#########################################, ''#####,          
                    ,#############################################,,   '####,        
                  ,##################################################,,,,####,       
                ,###########''''           ''''###############################       
              ,#####''   ,,,,##########,,,,          '''####'''          '####       
            ,##' ,,,,###########################,,,                        '##       
           ' ,,###''''                  '''############,,,                           
         ,,##''                                '''############,,,,        ,,,,,,###''
      ,#''                                            '''#######################'''  
     '                                                          ''''####''''         
             ,#######,   #######,   ,#######,      ##                                
            ,#'     '#,  ##    ##  ,#'     '#,    #''#        ,####,    ,#,          
            ##       ##  ##   ,#'  ##            #'  '#       #'       ,# #          
            ##       ##  #######   ##           ,######,      #####,      #          
            '#,     ,#'  ##    ##  '#,     ,#' ,#      #,     #,   #      #          
             '#######'   ##     ##  '#######'  #'      '#     '####' #    #          



                #########################################################
                #                        -***-                          #
                #          Department of theory and spectroscopy        #
                #                                                       #
                #                      Frank Neese                      #
                #                                                       #
                #     Directorship, Architecture, Infrastructure        #
                #                    SHARK, DRIVERS                     #
                #        Core code/Algorithms in most modules           #
                #                                                       #
                #        Max Planck Institute fuer Kohlenforschung      #
                #                Kaiser Wilhelm Platz 1                 #
                #                 D-45470 Muelheim/Ruhr                 #
                #                      Germany                          #
                #                                                       #
                #                  All rights reserved                  #
                #                        -***-                          #
                #########################################################


                         Program Version 6.1.0  -  RELEASE   -
                                (GIT: $679e74b$)
                          ($2025-06-10 18:02:51 +0200$)


 With contributions from (in alphabetic order):
[Max-Planck-Institut fuer Kohlenforschung]                               
  Daniel Aravena         : Magnetic Suceptibility                        
  Michael Atanasov       : Ab Initio Ligand Field Theory (pilot matlab implementation)
  Alexander A. Auer      : GIAO ZORA, VPT2 properties, NMR spectrum      
  Ute Becker             : All parallelization in ORCA, NUMFREQ, NUMCALC 
  Giovanni Bistoni       : ED, misc. LED, open-shell LED, HFLD           
  Dmytro Bykov           : pre 5.0 version of the SCF Hessian            
  Marcos Casanova-Páez   : Triplet and SCS-CIS(D). UHF-(DLPNO)-IP/EA/STEOM-CCSD. UHF-CVS-IP/STEOM-CCSD   
  Vijay G. Chilkuri      : MRCI spin determinant printing, contributions to CSF-ICE 
  Pauline Colinet        : FMM embedding                                 
  Dipayan Datta          : RHF DLPNO-CCSD density                        
  Achintya Kumar Dutta   : EOM-CC, STEOM-CC                              
  Nicolas Foglia         : Exact transition moments, OPA infrastructure, MCD improvements    
  Dmitry Ganyushin       : Spin-Orbit,Spin-Spin,Magnetic field MRCI      
  Miquel Garcia-Rates    : C-PCM and meta-GGA Hessian, CCSD/C-PCM, Gaussian charge scheme 
  Tiago L. C. Gouveia    : GS-ROHF, GS-ROCIS                             
  Yang Guo               : DLPNO-NEVPT2, F12-NEVPT2, CIM, IAO-localization        
  Andreas Hansen         : Spin unrestricted coupled pair/coupled cluster methods 
  Ingolf Harden          : AUTO-CI MPn and infrastructure                
  Benjamin Helmich-Paris : MC-RPA, TRAH-(SCF,CASSCF), AVAS, COSX integrals, SCF dyn. polar., MC-PDFT, srDFT 
  Lee Huntington         : MR-EOM, pCC                                   
  Robert Izsak           : Overlap fitted RIJCOSX, COSX-SCS-MP3, EOM     
  Riya Kayal             : Wick's Theorem for AUTO-CI, AUTO-CI UHF-CCSDT 
  Emily Kempfer          : AUTO-CI RHF CISDT and CCSDT, approximate NEVPT4
  Christian Kollmar      : KDIIS, OOCD, Brueckner-CCSD(T), CCSD density, CASPT2, CASPT2-K, improved NEVPT2 
  Axel Koslowski         : Symmetry handling                             
  Simone Kossmann        : meta-GGA functionals, TD-DFT gradient, OOMP2, (MP2 Hessian; deprecated post 5.0) 
  Lucas Lang             : DCDCAS, Hyperfine gauge corrections, ICE-SOC+SSC
  Marvin Lechner         : AUTO-CI (C++ implementation), FIC-MRCC        
  Spencer Leger          : CASSCF response                               
  Dagmar Lenk            : GEPOL surface, SMD, ORCA-2-JSON               
  Dimitrios Liakos       : Extrapolation schemes; Compound Job, Property file
  Dimitrios Manganas     : Further ROCIS development; embedding schemes. LFT, Crystal Embedding 
  Dimitrios Pantazis     : SARC Basis sets                               
  Anastasios Papadopoulos: AUTO-CI, single reference methods and gradients 
  Taras Petrenko         : pre 6.0 DFT Hessian and TD-DFT gradient,  ECA, NRVS 
  Petra Pikulova         : Analytic Raman intensities                    
  Peter Pinski           : DLPNO-MP2, DLPNO-MP2 Gradient                 
  Shashank Vittal Rao    : ES-AILFT, MagRelax                            
  Christoph Reimann      : Effective Core Potentials                     
  Marius Retegan         : Local ZFS, SOC                                
  Christoph Riplinger    : Optimizer, TS searches, QM/MM, DLPNO-CCSD(T), (RO)-DLPNO pert. Triples 
  Michael Roemelt        : Original ROCIS implementation, recursive CI coupling coefficients
  Masaaki Saitow         : Open-shell DLPNO-CCSD energy and density      
  Barbara Sandhoefer     : DKH picture change effects                    
  Yorick L. A. Schmerwitz: GMF and freeze-and-release deltaSCF, NEB S-IDPP initial path                    
  Kantharuban Sivalingam : CASSCF convergence/infrastructure, NEVPT2, NEVPT3, NEVPT4(SD), FIC-MRCI and CEPA variants
  Bernardo de Souza      : ESD, SOC TD-DFT                               
  Georgi L. Stoychev     : AutoAux, RI-MP2 NMR, DLPNO-MP2 response, X2C  
  Van Anh Tran           : RI-MP2 g-tensors                              
  Willem Van den Heuvel  : Paramagnetic NMR                              
  Zikuan Wang            : NOTCH, Electric field optimization            
  Frank Wennmohs         : Technical directorship and infrastructure     
  Hang Xu                : AUTO-CI-Response properties                   
                                                                         
[FACCTs GmbH]                                                            
  Markus Bursch, Nicolas Foglia, Miquel Garcia-Rates, Ingolf Harden, Hagen Neugebauer, Anastasios Papadopoulos, 
  Christoph Riplinger, Bernardo de Souza, Georgi L. Stoychev                                                    
                                                                 
  APM, various basis sets, CI-OPT, improved COSX, DLPNO-Multilevel,           
  DOCKER, DRACO, updates on ESD, Fragmentator, GOAT, IRC, LR-CPCM, L-BFGS, MBIS, meta-GGA TD-DFT gradient, ML-optimized integration grids, 
  MM, NACMEs, nearIR, NEB, NEB-TS, NL-DFT gradient (VV10), 2- and 3-layer-ONIOM, interface openCOSMO-RS, QMMM,   
  Crystal-QMMM, RESP, rigid body optimization, SF, symmetry and pop. for TD-DFT, various functionals, SOLVATOR                                   
                                                                         
[Other institutions]                                                     
  V. Asgeirsson          : NEB                                           
  Christoph Bannwarth    : sTDA-DFT, sTD-DFT, PBEh-3c, B97-3c, D3        
  Giovanni Bistoni       : ETS/NOCV, ADLD/ADEX, COVALED                  
  Martin Brehm           : Molecular dynamics                            
  Ronald Cardenas        : ETS/NOCV                                      
  Martina Colucci        : COVALED                                       
  Sebastian Ehlert       : rSCAN, r2SCAN, r2SCAN-3c, D4, dhf basis sets  
  Marvin Friede          : D4 for Fr, Ra, Ac-Lr                          
  Lars Goerigk           : TD-DFT with DH, B97 family of functionals     
  Stefan Grimme          : VdW corrections, initial TS optimization, DFT functionals, gCP, sTDA/sTD-DF 
  Waldemar Hujo          : DFT-NL                                        
  H. Jonsson             : NEB                                           
  Holger Kruse           : gCP                                           
  Marcel Mueller         : wB97X-3c, vDZP basis set                      
  Hagen Neugebauer       : wr2SCAN, Native XTB                           
  Gianluca Regni         : ADLD/ADEX                                     
  Tobias Risthaus        : pre 6.0 range-separated hybrid DFT and stability analysis
  Lukas Wittmann         : regularized MP2, r2SCAN double-hybrids, wr2SCAN        
                                                                         
We gratefully acknowledge several colleagues who have allowed us to      
interface, adapt or use parts of their codes:                            
  Ed Valeev, F. Pavosevic, A. Kumar             : LibInt (2-el integral package), F12 methods 
  Garnet Chan, S. Sharma, J. Yang, R. Olivares  : DMRG                   
  Ulf Ekstrom                                   : XCFun DFT Library      
  Mihaly Kallay                                 : mrcc  (arbitrary order and MRCC methods)
  Frank Weinhold                                : gennbo (NPA and NBO analysis)           
  Simon Mueller                                 : openCOSMO-RS                            
  Christopher J. Cramer and Donald G. Truhlar   : smd solvation model                     
  S Lehtola, MJT Oliveira, MAL Marques          : LibXC Library                           
  Liviu Ungur et al                             : ANISO software                          


 Your calculation uses the libint2 library for the computation of 2-el integrals
 For citations please refer to: http://libint.valeyev.net

 Your ORCA version has been built with support for libXC version: 7.0.0
 For citations please refer to: https://libxc.gitlab.io

 This ORCA versions uses:
   CBLAS   interface :  Fast vector & matrix operations
   LAPACKE interface :  Fast linear algebra routines
   SCALAPACK package :  Parallel linear algebra routines
   Shared memory     :  Shared parallel matrices
   BLAS/LAPACK       :  OpenBLAS 0.3.29  USE64BITINT DYNAMIC_ARCH NO_AFFINITY Haswell SINGLE_THREADED
        Core in use  :  Haswell
   Copyright (c) 2011-2014, The OpenBLAS Project


  ***********************************
  * Starting time: Sat Aug 16 15:52:00 2025
  * Host name:     CHEMLAB02
  * Process ID:    1906821
  * Working dir.:  /home/vivek/mm-project/vivek/xtb-goat/B97-D/a/0
  ***********************************



***************************************
The coordinates will be read from file: /home/vivek/mm-project/vivek/xtb-goat/xtb-goat/a/A_CONF/0.xyz
***************************************


Your calculation utilizes empirical dispersion correction


Warning: RI is on but no J-basis has been assigned. Assigning Def2/J (nothing to worry about!)
================================================================================

----- Orbital basis set information -----
Your calculation utilizes the basis: 6-31G**
   H-He, Li-Ne : W. J. Hehre, R. Ditchfield and J.A. Pople, J. Chem. Phys. 56, 2257 (1972).
                 Note: He and Ne are unpublished basis sets taken from the Gaussian program.
                 Note: Li and B from J. D. Dill and J. A. Pople, J. Chem. Phys. 62, 2921 (1975).
   Na - Ar     : M. M. Francl, W. J. Pietro, W. J. Hehre, J. S. Binkley, M. S. Gordon, 
                 D. J. DeFrees and J. A. Pople, J. Chem. Phys. 77, 3654 (1982).
   K - Zn      : V. A. Rassolov, J. A. Pople, M. A. Ratner, and T. L. Windus, J. Chem. Phys. 109, 1223 (1998).

----- AuxJ basis set information -----
Your calculation utilizes the auxiliary basis: def2/J
   H-Rn: F. Weigend, Phys. Chem. Chem. Phys. 8, 1057 (2006).
   Fr-Lr: K. Eichkorn, F. Weigend, O. Treutler, R. Ahlrichs; Theor. Chem. Acc. 97, 119 (1997).

================================================================================
                                        WARNINGS
                       Please study these warnings very carefully!
================================================================================


INFO   : The exchange functional is Grimme's B97(-D)
         As described in S. Grimme, J. Comput. Chem. 27, 1787 (2006).
         Note that this functional defaults to a pure GGA. 

INFO   : The correlation functional is Grimme's B97(-D)
         As described in S. Grimme, J. Comput. Chem. 27, 1787 (2006).

================================================================================
                                       INPUT FILE
================================================================================
NAME = 0.inp
|  1> ! B97-D 6-31G** 
|  2> 
|  3> * xyzfile 0 1 /home/vivek/mm-project/vivek/xtb-goat/xtb-goat/a/A_CONF/0.xyz
|  4> 
|  5>                          ****END OF INPUT****
================================================================================

                       ****************************
                       * Single Point Calculation *
                       ****************************

---------------------------------
CARTESIAN COORDINATES (ANGSTROEM)
---------------------------------
  C     -4.502435   -0.095038   -1.877922
  O     -3.517902   -0.723381   -2.165319
  O     -4.458549    1.179005   -1.474341
  C     -5.924915   -0.643657   -1.932435
  H     -3.543238    1.502730   -1.467164
  C     -6.664913    0.028621   -3.092717
  H     -7.671047   -0.375592   -3.150771
  N     -5.962341   -2.082542   -2.092139
  H     -6.713022    1.102508   -2.937563
  H     -6.153291   -0.174725   -4.031112
  H     -6.421949   -0.384505   -0.990691
  H     -5.485402   -2.536788   -1.320354
  H     -5.466716   -2.342207   -2.939895

----------------------------
CARTESIAN COORDINATES (A.U.)
----------------------------
  NO LB      ZA    FRAG     MASS         X           Y           Z
   0 C     6.0000    0    12.011   -8.508368   -0.179596   -3.548758
   1 O     8.0000    0    15.999   -6.647871   -1.366991   -4.091860
   2 O     8.0000    0    15.999   -8.425437    2.227996   -2.786100
   3 C     6.0000    0    12.011  -11.196467   -1.216336   -3.651773
   4 H     1.0000    0     1.008   -6.695750    2.839749   -2.772538
   5 C     6.0000    0    12.011  -12.594860    0.054086   -5.844388
   6 H     1.0000    0     1.008  -14.496179   -0.709766   -5.954095
   7 N     7.0000    0    14.007  -11.267191   -3.935434   -3.953569
   8 H     1.0000    0     1.008  -12.685772    2.083439   -5.551190
   9 H     1.0000    0     1.008  -11.628035   -0.330183   -7.617697
  10 H     1.0000    0     1.008  -12.135725   -0.726609   -1.872135
  11 H     1.0000    0     1.008  -10.365907   -4.793835   -2.495108
  12 H     1.0000    0     1.008  -10.330597   -4.426130   -5.555596

--------------------------------
INTERNAL COORDINATES (ANGSTROEM)
--------------------------------
 C      0   0   0     0.000000000000     0.00000000     0.00000000
 O      1   0   0     1.202795364676     0.00000000     0.00000000
 O      1   2   0     1.337156709409   122.88792863     0.00000000
 C      1   2   3     1.525583915257   124.52862231   179.82776312
 H      3   1   2     0.970898368605   110.54009737     0.95544739
 C      4   1   2     1.531602852677   108.64610653   250.34625580
 H      6   4   1     1.085847790443   108.95279882   178.67451958
 N      4   1   2     1.448204184460   112.66454058    12.34279532
 H      6   4   1     1.086103559171   110.31503346   298.96927669
 H      6   4   1     1.087975505879   110.13084780    59.57812388
 H      4   1   2     1.095939900106   107.88643429   132.13547540
 H      8   4   1     1.014623787229   110.41314581    59.50421799
 H      8   4   1     1.015755647006   109.47652438   302.05203883

---------------------------
INTERNAL COORDINATES (A.U.)
---------------------------
 C      0   0   0     0.000000000000     0.00000000     0.00000000
 O      1   0   0     2.272953834387     0.00000000     0.00000000
 O      1   2   0     2.526859978918   122.88792863     0.00000000
 C      1   2   3     2.882935794151   124.52862231   179.82776312
 H      3   1   2     1.834732020534   110.54009737     0.95544739
 C      4   1   2     2.894309937491   108.64610653   250.34625580
 H      6   4   1     2.051954947060   108.95279882   178.67451958
 N      4   1   2     2.736709294629   112.66454058    12.34279532
 H      6   4   1     2.052438279910   110.31503346   298.96927669
 H      6   4   1     2.055975746526   110.13084780    59.57812388
 H      4   1   2     2.071026270438   107.88643429   132.13547540
 H      8   4   1     1.917361086826   110.41314581    59.50421799
 H      8   4   1     1.919499991826   109.47652438   302.05203883

---------------------
BASIS SET INFORMATION
---------------------
There are 4 groups of distinct atoms

 Group   1 Type C   : 10s4p1d contracted to 3s2p1d pattern {631/31/1}
 Group   2 Type O   : 10s4p1d contracted to 3s2p1d pattern {631/31/1}
 Group   3 Type H   : 4s1p contracted to 2s1p pattern {31/1}
 Group   4 Type N   : 10s4p1d contracted to 3s2p1d pattern {631/31/1}

Atom   0C    basis set group =>   1
Atom   1O    basis set group =>   2
Atom   2O    basis set group =>   2
Atom   3C    basis set group =>   1
Atom   4H    basis set group =>   3
Atom   5C    basis set group =>   1
Atom   6H    basis set group =>   3
Atom   7N    basis set group =>   4
Atom   8H    basis set group =>   3
Atom   9H    basis set group =>   3
Atom  10H    basis set group =>   3
Atom  11H    basis set group =>   3
Atom  12H    basis set group =>   3
---------------------------------
AUXILIARY/J BASIS SET INFORMATION
---------------------------------
There are 4 groups of distinct atoms

 Group   1 Type C   : 12s5p4d2f1g contracted to 6s4p3d1f1g pattern {711111/2111/211/2/1}
 Group   2 Type O   : 12s5p4d2f1g contracted to 6s4p3d1f1g pattern {711111/2111/211/2/1}
 Group   3 Type H   : 5s2p1d contracted to 3s1p1d pattern {311/2/1}
 Group   4 Type N   : 12s5p4d2f1g contracted to 6s4p3d1f1g pattern {711111/2111/211/2/1}

Atom   0C    basis set group =>   1
Atom   1O    basis set group =>   2
Atom   2O    basis set group =>   2
Atom   3C    basis set group =>   1
Atom   4H    basis set group =>   3
Atom   5C    basis set group =>   1
Atom   6H    basis set group =>   3
Atom   7N    basis set group =>   4
Atom   8H    basis set group =>   3
Atom   9H    basis set group =>   3
Atom  10H    basis set group =>   3
Atom  11H    basis set group =>   3
Atom  12H    basis set group =>   3
------------------------------------------------------------------------------
                             ORCA STARTUP CALCULATIONS
                           -- RI-GTO INTEGRALS CHOSEN --
------------------------------------------------------------------------------
------------------------------------------------------------------------------
                   ___                                                        
                  /   \      - P O W E R E D   B Y -                         
                 /     \                                                     
                 |  |  |   _    _      __       _____    __    __             
                 |  |  |  | |  | |    /  \     |  _  \  |  |  /  |          
                  \  \/   | |  | |   /    \    | | | |  |  | /  /          
                 / \  \   | |__| |  /  /\  \   | |_| |  |  |/  /          
                |  |  |   |  __  | /  /__\  \  |    /   |      \           
                |  |  |   | |  | | |   __   |  |    \   |  |\   \          
                \     /   | |  | | |  |  |  |  | |\  \  |  | \   \       
                 \___/    |_|  |_| |__|  |__|  |_| \__\ |__|  \__/        
                                                                              
                      - O R C A' S   B I G   F R I E N D -                    
                                      &                                       
                       - I N T E G R A L  F E E D E R -                       
                                                                              
 v1 FN, 2020, v2 2021, v3 2022-2024                                           
------------------------------------------------------------------------------


----------------------
SHARK INTEGRAL PACKAGE
----------------------

Number of atoms                             ...     13
Number of basis functions                   ...    119
Number of shells                            ...     57
Maximum angular momentum                    ...      2
Integral batch strategy                     ... SHARK/LIBINT Hybrid
RI-J (if used) integral strategy            ... SPLIT-RIJ (Revised 2003 algorithm where possible)
Printlevel                                  ...      1
Contraction scheme used                     ... SEGMENTED contraction
Prescreening option                         ... SCHWARTZ
   Thresh                                   ... 1.000e-10
   Tcut                                     ... 1.000e-11
   Tpresel                                  ... 1.000e-11 
Coulomb Range Separation                    ... NOT USED
Exchange Range Separation                   ... NOT USED
Multipole approximations                    ... NOT USED
Finite Nucleus Model                        ... NOT USED
CABS basis                                  ... NOT available
Auxiliary Coulomb fitting basis             ... AVAILABLE
   # of basis functions in Aux-J            ...    371
   # of shells in Aux-J                     ...    125
   Maximum angular momentum in Aux-J        ...      4
Auxiliary J/K fitting basis                 ... NOT available
Auxiliary Correlation fitting basis         ... NOT available
Auxiliary 'external' fitting basis          ... NOT available

Checking pre-screening integrals            ... done (  0.0 sec) Dimension = 57
   => SHARK Basis and OBASIS are compatible. Storing Pre-screening
Shell pair information
Shell pair cut-off parameter TPreSel        ...   1.0e-11
Total number of shell pairs                 ...      1653
Shell pairs after pre-screening             ...      1590
Total number of primitive shell pairs       ...      8022
Primitive shell pairs kept                  ...      5515
          la=0 lb=0:    506 shell pairs
          la=1 lb=0:    580 shell pairs
          la=1 lb=1:    181 shell pairs
          la=2 lb=0:    189 shell pairs
          la=2 lb=1:    113 shell pairs
          la=2 lb=2:     21 shell pairs

Checking whether 4 symmetric matrices of dimension 119 fit in memory
:Max Core in MB      =   4096.00
 MB in use           =      5.52
 MB left             =   4090.48
 MB needed           =      0.22
 Data fit in memory  = YES
Calculating RI/J V-Matrix + Cholesky decomp.... done (  0.0 sec)
Calculating Nuclear repulsion               ... done (  0.0 sec) ENN=    250.230647809757 Eh

Diagonalization of the overlap matrix:
Smallest eigenvalue                        ... 3.559e-03
Time for diagonalization                   ...    0.001 sec
Threshold for overlap eigenvalues          ... 1.000e-07
Number of eigenvalues below threshold      ... 0
Time for construction of square roots      ...    0.000 sec
Total time needed                          ...    0.001 sec

-------------------
DFT GRID GENERATION
-------------------

General Integration Accuracy     IntAcc      ... 4.388
Radial Grid Type                 RadialGrid  ... OptM3 with GC (2021)
Angular Grid (max. ang.)         AngularGrid ... 4 (Lebedev-302)
Angular grid pruning method      GridPruning ... 4 (adaptive)
Weight generation scheme         WeightScheme... mBecke (2022)
Basis function cutoff            BFCut       ... 1.0000e-10
Integration weight cutoff        WCut        ... 1.0000e-14
Partially contracted basis set               ... off
Rotationally invariant grid construction     ... off
Angular grids for H and He will be reduced by one unit

Total number of grid points                  ...    58909
Total number of batches                      ...      926
Average number of points per batch           ...       63
Average number of grid points per atom       ...     4531
Grids setup in   0.2 sec
Initializing property integral containers    ... done (  0.0 sec)

SHARK setup successfully completed in   0.2 seconds

Maximum memory used throughout the entire STARTUP-calculation: 24.8 MB
-------------------------------------------------------------------------------
                                 ORCA GUESS
                   Start orbitals & Density for SCF / CASSCF
-------------------------------------------------------------------------------

------------
SCF SETTINGS
------------
Hamiltonian:
 Density Functional     Method          .... DFT(GTOs)
 Exchange Functional    Exchange        .... B97(D)
 Correlation Functional Correlation     .... B97(D)
 Gradients option       PostSCFGGA      .... off
 RI-approximation to the Coulomb term is turned on
   Number of AuxJ basis functions       .... 371


General Settings:
 Integral files         IntName         .... 0
 Hartree-Fock type      HFTyp           .... RHF
 Total Charge           Charge          ....    0
 Multiplicity           Mult            ....    1
 Number of Electrons    NEL             ....   48
 Basis Dimension        Dim             ....  119
 Nuclear Repulsion      ENuc            ....    250.2306478098 Eh

Convergence Acceleration:
 AO-DIIS                CNVDIIS         .... on
   Start iteration      DIISMaxIt       ....    12
   Startup error        DIISStart       ....  0.200000
   # of expansion vecs  DIISMaxEq       ....     5
   Bias factor          DIISBfac        ....   1.050
   Max. coefficient     DIISMaxC        ....  10.000
 MO-DIIS                CNVKDIIS        .... off
 Trust-Rad. Augm. Hess. CNVTRAH         .... auto
   Auto Start mean grad. ratio tolernc. ....  1.125000
   Auto Start start iteration           ....    50
   Auto Start num. interpolation iter.  ....    10
   Max. Number of Micro iterations      ....    24
   Max. Number of Macro iterations      .... Maxiter - #DIIS iter
   Number of Davidson start vectors     ....     2
   Converg. threshold    (grad. norm)   ....   5.000e-05
   Grad. Scal. Fac. for Micro threshold ....   0.100
   Minimum threshold for Micro iter.    ....   1.000e-02
   NR start threshold (gradient norm)   ....   1.000e-04
   Initial trust radius                 ....   0.400
   Minimum AH scaling param. (alpha)    ....   1.000
   Maximum AH scaling param. (alpha)    .... 1000.000
   Quad. conv. algorithm                .... NR
   White noise on init. David. guess    .... on
   Maximum white noise                  ....   0.010
   Pseudo random numbers                .... off
   Inactive MOs                         .... canonical
   Orbital update algorithm             .... Taylor
   Preconditioner                       .... Diag
   Full preconditioner red. dimension   ....   250
 SOSCF                 CNVSOSCF           .... on
   Start iteration     SOSCFMaxIt         ....   150
   Startup grad/error  SOSCFStart         ....  0.003300
   Hessian update      SOSCFHessUp        .... L-BFGS
   Autom. constraints  SOSCFAutoConstrain .... off
 Level Shifting         CNVShift        .... on
   Level shift para.    LevelShift      ....    0.2500
   Turn off err/grad.   ShiftErr        ....    0.0010
 Zerner damping         CNVZerner       .... off
 Static damping         CNVDamp         .... on
   Fraction old density DampFac         ....    0.7000
   Max. Damping (<1)    DampMax         ....    0.9800
   Min. Damping (>=0)   DampMin         ....    0.0000
   Turn off err/grad.   DampErr         ....    0.1000

SCF Procedure:
 Maximum # iterations   MaxIter         ....   125
 SCF integral mode      SCFMode         .... Direct
   Integral package                     .... SHARK and LIBINT hybrid scheme
 Reset frequency        DirectResetFreq ....    20
 Integral Threshold     Thresh          ....  1.000e-10 Eh
 Primitive CutOff       TCut            ....  1.000e-11 Eh

Convergence Tolerance:
 Convergence Check Mode ConvCheckMode   .... Total+1el-Energy
 Convergence forced     ConvForced      .... 0
 Energy Change          TolE            ....  1.000e-06 Eh
 1-El. energy change                    ....  1.000e-03 Eh
 Orbital Gradient       TolG            ....  5.000e-05
 Orbital Rotation angle TolX            ....  5.000e-05
 DIIS Error             TolErr          ....  1.000e-06

------------------------------
INITIAL GUESS: MODEL POTENTIAL
------------------------------
Loading Hartree-Fock densities                     ... done
Calculating cut-offs                               ... done
Initializing the effective Hamiltonian             ... done
Setting up the integral package (SHARK)            ... done
Starting the Coulomb interaction                   ... done (   0.0 sec)
Making the grid                                    ... done (   0.0 sec)
Mapping shells                                     ... done
Starting the XC term evaluation                    ... done (   0.0 sec)
  promolecular density results
     # of electrons  =     47.993850684
     EX              =    -39.859333668
     EC              =     -2.123832457
     EX+EC           =    -41.983166125
Transforming the Hamiltonian                       ... done (   0.0 sec)
Diagonalizing the Hamiltonian                      ... done (   0.0 sec)
Back transforming the eigenvectors                 ... done (   0.0 sec)
Now organizing SCF variables                       ... done
                      ------------------
                      INITIAL GUESS DONE (   0.1 sec)
                      ------------------
             **** ENERGY FILE WAS UPDATED (0.en.tmp) ****
Finished Guess after   0.1 sec
Maximum memory used throughout the entire GUESS-calculation: 9.4 MB

-------------------------------------------------------------------------------------------
                                      ORCA LEAN-SCF
                              memory conserving SCF solver
-------------------------------------------------------------------------------------------

----------------------------------------D-I-I-S--------------------------------------------
Iteration    Energy (Eh)           Delta-E    RMSDP     MaxDP     DIISErr   Damp  Time(sec)
-------------------------------------------------------------------------------------------
               ***  Starting incremental Fock matrix formation  ***
    1    -323.2705571222217031     0.00e+00  4.95e-03  1.09e-01  2.61e-01  0.700   0.2
    2    -323.4027534917746607    -1.32e-01  3.05e-03  5.79e-02  9.90e-02  0.700   0.2
                               ***Turning on AO-DIIS***
    3    -323.4417584979348703    -3.90e-02  1.12e-03  1.50e-02  3.12e-02  0.700   0.2
    4    -323.4678506945289200    -2.61e-02  1.46e-03  1.94e-02  1.58e-02  0.000   0.2
    5    -323.5289199659488304    -6.11e-02  5.19e-04  8.06e-03  1.21e-02  0.000   0.2
                              *** Initializing SOSCF ***
---------------------------------------S-O-S-C-F--------------------------------------
Iteration    Energy (Eh)           Delta-E    RMSDP     MaxDP     MaxGrad    Time(sec)
--------------------------------------------------------------------------------------
    6    -323.5295545102865162    -6.35e-04  1.86e-04  2.64e-03  3.24e-03     0.2
               *** Restarting incremental Fock matrix formation ***
    7    -323.5296007314528879    -4.62e-05  1.62e-04  3.67e-03  7.88e-04     0.2
    8    -323.5295818376408761     1.89e-05  8.87e-05  2.72e-03  2.27e-03     0.2
    9    -323.5296075003597025    -2.57e-05  5.80e-05  8.38e-04  2.51e-04     0.2
   10    -323.5296058788318305     1.62e-06  3.30e-05  4.78e-04  2.75e-04     0.2
   11    -323.5296087731107946    -2.89e-06  9.47e-06  1.98e-04  4.63e-05     0.2
   12    -323.5296087191023844     5.40e-08  5.52e-06  1.29e-04  7.80e-05     0.2
                 **** Energy Check signals convergence ****

               *****************************************************
               *                     SUCCESS                       *
               *           SCF CONVERGED AFTER  12 CYCLES          *
               *****************************************************

             **** ENERGY FILE WAS UPDATED (0.en.tmp) ****

----------------
TOTAL SCF ENERGY
----------------

Total Energy       :       -323.52960880876697 Eh           -8803.68823 eV

Components:
Nuclear Repulsion  :        250.23064780975679 Eh            6809.12210 eV
Electronic Energy  :       -573.76025661852373 Eh          -15612.81032 eV
One Electron Energy:       -936.88199858502901 Eh          -25493.85526 eV
Two Electron Energy:        363.12174196650528 Eh            9881.04494 eV

Virial components:
Potential Energy   :       -645.40384784127446 Eh          -17562.33155 eV
Kinetic Energy     :        321.87423903250749 Eh            8758.64332 eV
Virial Ratio       :          2.00514290855098

DFT components:
N(Alpha)           :       23.999989389320 electrons
N(Beta)            :       23.999989389320 electrons
N(Total)           :       47.999978778641 electrons
E(X)               :      -40.770444637506 Eh       
E(C)               :       -2.115538395854 Eh       
E(XC)              :      -42.885983033360 Eh       

---------------
SCF CONVERGENCE
---------------

  Last Energy change         ...   -5.4008e-08  Tolerance :   1.0000e-06
  Last MAX-Density change    ...    1.2909e-04  Tolerance :   1.0000e-05
  Last RMS-Density change    ...    5.5166e-06  Tolerance :   1.0000e-06
  Last DIIS Error            ...    3.2434e-03  Tolerance :   1.0000e-06
  Last Orbital Gradient      ...    7.8048e-05  Tolerance :   5.0000e-05
  Last Orbital Rotation      ...    5.3494e-05  Tolerance :   5.0000e-05


----------------
ORBITAL ENERGIES
----------------

  NO   OCC          E(Eh)            E(eV) 
   0   2.0000     -18.813606      -511.9443 
   1   2.0000     -18.752925      -510.2930 
   2   2.0000     -13.984575      -380.5396 
   3   2.0000     -10.026088      -272.8237 
   4   2.0000      -9.948326      -270.7077 
   5   2.0000      -9.903341      -269.4836 
   6   2.0000      -1.020116       -27.7588 
   7   2.0000      -0.931176       -25.3386 
   8   2.0000      -0.813305       -22.1312 
   9   2.0000      -0.681706       -18.5502 
  10   2.0000      -0.604005       -16.4358 
  11   2.0000      -0.532643       -14.4940 
  12   2.0000      -0.458091       -12.4653 
  13   2.0000      -0.436782       -11.8854 
  14   2.0000      -0.419156       -11.4058 
  15   2.0000      -0.393595       -10.7103 
  16   2.0000      -0.382692       -10.4136 
  17   2.0000      -0.354975        -9.6594 
  18   2.0000      -0.333372        -9.0715 
  19   2.0000      -0.322296        -8.7701 
  20   2.0000      -0.311959        -8.4888 
  21   2.0000      -0.273450        -7.4409 
  22   2.0000      -0.223279        -6.0757 
  23   2.0000      -0.194478        -5.2920 
  24   0.0000      -0.015343        -0.4175 
  25   0.0000       0.051762         1.4085 
  26   0.0000       0.072297         1.9673 
  27   0.0000       0.109477         2.9790 
  28   0.0000       0.121351         3.3021 
  29   0.0000       0.146835         3.9956 
  30   0.0000       0.157075         4.2742 
  31   0.0000       0.160867         4.3774 
  32   0.0000       0.194048         5.2803 
  33   0.0000       0.206209         5.6112 
  34   0.0000       0.222803         6.0628 
*Only the first 10 virtual orbitals were printed.

                    ********************************
                    * MULLIKEN POPULATION ANALYSIS *
                    ********************************

-----------------------
MULLIKEN ATOMIC CHARGES
-----------------------
   0 C :    0.489515
   1 O :   -0.417355
   2 O :   -0.454691
   3 C :   -0.049540
   4 H :    0.317255
   5 C :   -0.326618
   6 H :    0.133888
   7 N :   -0.548402
   8 H :    0.127376
   9 H :    0.112870
  10 H :    0.129494
  11 H :    0.242818
  12 H :    0.243390
Sum of atomic charges:   -0.0000000

--------------------------------
MULLIKEN REDUCED ORBITAL CHARGES
--------------------------------
  0 C s       :     2.986483  s :     2.986483
      pz      :     0.775866  p :     2.399586
      px      :     0.897071
      py      :     0.726649
      dz2     :     0.010765  d :     0.124415
      dxz     :     0.015228
      dyz     :     0.020781
      dx2y2   :     0.048275
      dxy     :     0.029366

  1 O s       :     3.855239  s :     3.855239
      pz      :     1.425952  p :     4.534036
      px      :     1.479589
      py      :     1.628495
      dz2     :     0.003378  d :     0.028080
      dxz     :     0.007095
      dyz     :     0.003117
      dx2y2   :     0.007005
      dxy     :     0.007485

  2 O s       :     3.823507  s :     3.823507
      pz      :     1.744380  p :     4.608476
      px      :     1.470838
      py      :     1.393258
      dz2     :     0.003657  d :     0.022708
      dxz     :     0.001237
      dyz     :     0.004724
      dx2y2   :     0.008490
      dxy     :     0.004600

  3 C s       :     3.199941  s :     3.199941
      pz      :     1.033999  p :     2.791753
      px      :     0.933782
      py      :     0.823973
      dz2     :     0.011403  d :     0.057845
      dxz     :     0.006890
      dyz     :     0.009465
      dx2y2   :     0.014045
      dxy     :     0.016043

  4 H s       :     0.644829  s :     0.644829
      pz      :     0.009093  p :     0.037917
      px      :     0.020085
      py      :     0.008738

  5 C s       :     3.254570  s :     3.254570
      pz      :     0.972358  p :     3.042885
      px      :     1.037981
      py      :     1.032546
      dz2     :     0.008114  d :     0.029163
      dxz     :     0.006295
      dyz     :     0.003143
      dx2y2   :     0.008164
      dxy     :     0.003447

  6 H s       :     0.854540  s :     0.854540
      pz      :     0.002478  p :     0.011572
      px      :     0.005914
      py      :     0.003180

  7 N s       :     3.586623  s :     3.586623
      pz      :     1.149716  p :     3.933372
      px      :     1.664786
      py      :     1.118870
      dz2     :     0.002719  d :     0.028407
      dxz     :     0.009805
      dyz     :     0.005071
      dx2y2   :     0.005681
      dxy     :     0.005132

  8 H s       :     0.861010  s :     0.861010
      pz      :     0.002572  p :     0.011614
      px      :     0.002580
      py      :     0.006462

  9 H s       :     0.875499  s :     0.875499
      pz      :     0.005545  p :     0.011631
      px      :     0.003323
      py      :     0.002763

 10 H s       :     0.859557  s :     0.859557
      pz      :     0.005514  p :     0.010949
      px      :     0.003438
      py      :     0.001996

 11 H s       :     0.733274  s :     0.733274
      pz      :     0.008751  p :     0.023908
      px      :     0.008687
      py      :     0.006469

 12 H s       :     0.732702  s :     0.732702
      pz      :     0.009788  p :     0.023908
      px      :     0.008907
      py      :     0.005212



                     *******************************
                     * LOEWDIN POPULATION ANALYSIS *
                     *******************************

----------------------
LOEWDIN ATOMIC CHARGES
----------------------
   0 C :    0.100337
   1 O :   -0.222961
   2 O :   -0.141770
   3 C :   -0.051534
   4 H :    0.181306
   5 C :   -0.189478
   6 H :    0.081851
   7 N :   -0.246412
   8 H :    0.078926
   9 H :    0.072230
  10 H :    0.083680
  11 H :    0.126845
  12 H :    0.126981

-------------------------------
LOEWDIN REDUCED ORBITAL CHARGES
-------------------------------
  0 C s       :     2.859408  s :     2.859408
      pz      :     0.796952  p :     2.742519
      px      :     1.047317
      py      :     0.898250
      dz2     :     0.024844  d :     0.297736
      dxz     :     0.030787
      dyz     :     0.049064
      dx2y2   :     0.120759
      dxy     :     0.072283

  1 O s       :     3.554610  s :     3.554610
      pz      :     1.417642  p :     4.610296
      px      :     1.551559
      py      :     1.641095
      dz2     :     0.007290  d :     0.058055
      dxz     :     0.011424
      dyz     :     0.005439
      dx2y2   :     0.015269
      dxy     :     0.018632

  2 O s       :     3.470424  s :     3.470424
      pz      :     1.713504  p :     4.620321
      px      :     1.475762
      py      :     1.431055
      dz2     :     0.007457  d :     0.051026
      dxz     :     0.001333
      dyz     :     0.010042
      dx2y2   :     0.019828
      dxy     :     0.012366

  3 C s       :     2.880138  s :     2.880138
      pz      :     1.065548  p :     3.039894
      px      :     1.023696
      py      :     0.950649
      dz2     :     0.025531  d :     0.131502
      dxz     :     0.015598
      dyz     :     0.019364
      dx2y2   :     0.034049
      dxy     :     0.036961

  4 H s       :     0.702936  s :     0.702936
      pz      :     0.025667  p :     0.115758
      px      :     0.065243
      py      :     0.024848

  5 C s       :     2.920537  s :     2.920537
      pz      :     1.046937  p :     3.206529
      px      :     1.077733
      py      :     1.081859
      dz2     :     0.016903  d :     0.062412
      dxz     :     0.014359
      dyz     :     0.007526
      dx2y2   :     0.016329
      dxy     :     0.007296

  6 H s       :     0.877603  s :     0.877603
      pz      :     0.007062  p :     0.040546
      px      :     0.023630
      py      :     0.009855

  7 N s       :     3.196175  s :     3.196175
      pz      :     1.170759  p :     3.992458
      px      :     1.643093
      py      :     1.178606
      dz2     :     0.008272  d :     0.057779
      dxz     :     0.014671
      dyz     :     0.013709
      dx2y2   :     0.012378
      dxy     :     0.008749

  8 H s       :     0.880613  s :     0.880613
      pz      :     0.007377  p :     0.040461
      px      :     0.007329
      py      :     0.025754

  9 H s       :     0.887889  s :     0.887889
      pz      :     0.021080  p :     0.039881
      px      :     0.010969
      py      :     0.007832

 10 H s       :     0.877212  s :     0.877212
      pz      :     0.020697  p :     0.039108
      px      :     0.011851
      py      :     0.006560

 11 H s       :     0.794397  s :     0.794397
      pz      :     0.030161  p :     0.078758
      px      :     0.028685
      py      :     0.019912

 12 H s       :     0.793922  s :     0.793922
      pz      :     0.034856  p :     0.079097
      px      :     0.029250
      py      :     0.014991



                      *****************************
                      * MAYER POPULATION ANALYSIS *
                      *****************************

  NA   - Mulliken gross atomic population
  ZA   - Total nuclear charge
  QA   - Mulliken gross atomic charge
  VA   - Mayer's total valence
  BVA  - Mayer's bonded valence
  FA   - Mayer's free valence

  ATOM       NA         ZA         QA         VA         BVA        FA
  0 C      5.5105     6.0000     0.4895     3.9526     3.9526     0.0000
  1 O      8.4174     8.0000    -0.4174     2.1179     2.1179    -0.0000
  2 O      8.4547     8.0000    -0.4547     2.0286     2.0286    -0.0000
  3 C      6.0495     6.0000    -0.0495     3.8864     3.8864    -0.0000
  4 H      0.6827     1.0000     0.3173     0.9180     0.9180     0.0000
  5 C      6.3266     6.0000    -0.3266     3.8696     3.8696     0.0000
  6 H      0.8661     1.0000     0.1339     0.9556     0.9556    -0.0000
  7 N      7.5484     7.0000    -0.5484     2.9060     2.9060     0.0000
  8 H      0.8726     1.0000     0.1274     0.9564     0.9564     0.0000
  9 H      0.8871     1.0000     0.1129     0.9570     0.9570    -0.0000
 10 H      0.8705     1.0000     0.1295     0.9468     0.9468    -0.0000
 11 H      0.7572     1.0000     0.2428     0.9227     0.9227    -0.0000
 12 H      0.7566     1.0000     0.2434     0.9290     0.9290    -0.0000

  Mayer bond orders larger than 0.100000
B(  0-C ,  1-O ) :   1.9347 B(  0-C ,  2-O ) :   1.0805 B(  0-C ,  3-C ) :   0.8958 
B(  2-O ,  4-H ) :   0.8515 B(  3-C ,  5-C ) :   0.9932 B(  3-C ,  7-N ) :   1.0605 
B(  3-C , 10-H ) :   0.9265 B(  5-C ,  6-H ) :   0.9539 B(  5-C ,  8-H ) :   0.9536 
B(  5-C ,  9-H ) :   0.9574 B(  7-N , 11-H ) :   0.9086 B(  7-N , 12-H ) :   0.9022 


-------
TIMINGS
-------

Total SCF time: 0 days 0 hours 0 min 2 sec 

Total time                  ....       2.670 sec
Sum of individual times     ....       2.482 sec  ( 93.0%)

SCF preparation             ....       0.022 sec  (  0.8%)
Fock matrix formation       ....       2.439 sec  ( 91.3%)
  Startup                   ....       0.000 sec  (  0.0% of F)
  Split-RI-J                ....       0.654 sec  ( 26.8% of F)
  XC integration            ....       1.962 sec  ( 80.4% of F)
    XC Preparation          ....       0.000 sec  (  0.0% of XC)
    Basis function eval.    ....       0.680 sec  ( 34.7% of XC)
    Density eval.           ....       0.375 sec  ( 19.1% of XC)
    XC-Functional eval.     ....       0.448 sec  ( 22.8% of XC)
    XC-Potential eval.      ....       0.405 sec  ( 20.7% of XC)
Diagonalization             ....       0.000 sec  (  0.0%)
Density matrix formation    ....       0.002 sec  (  0.1%)
Total Energy calculation    ....       0.000 sec  (  0.0%)
Population analysis         ....       0.001 sec  (  0.1%)
Orbital Transformation      ....       0.002 sec  (  0.1%)
Orbital Orthonormalization  ....       0.000 sec  (  0.0%)
DIIS solution               ....       0.010 sec  (  0.4%)
SOSCF solution              ....       0.005 sec  (  0.2%)
Finished LeanSCF after   2.7 sec

Maximum memory used throughout the entire LEANSCF-calculation: 12.8 MB



-------------------------------------------------------------------------------
                          DFT DISPERSION CORRECTION                            
-------------------------------------------------------------------------------
Active option DFTDOPT                   ...         2   
Final C6-coefficient scaling factor     ...     1.250
Final VDW-radii scaling factor          ...     1.100
Damping factor alpha                    ...    20.000
-------------------------   ----------------
Dispersion correction           -0.013418681
-------------------------   ----------------


-------------------------   --------------------
FINAL SINGLE POINT ENERGY      -323.543027489702
-------------------------   --------------------


------------------------------------------------------------------------------
                              ORCA PROPERTY CALCULATIONS
------------------------------------------------------------------------------

GBWName                                 ... 0.gbw
Number of atoms                         ...     13
Number of basis functions               ...    119
Max core memory                         ...   4096 MB

Electric properties:
Dipole moment                           ... YES
Quadrupole moment                       ...  NO
Static polarizability (Dipole/Dipole)   ...  NO
Static polarizability (Dipole/Quad.)    ...  NO
Static polarizability (Quad./Quad.)     ...  NO
Static polarizability (Velocity)        ...  NO
Static hyperpolarizability              ...  NO

Atomic electric properties:
Dipole moment                           ...  NO
Quadrupole moment                       ...  NO
Static polarizability                   ...  NO

Choice of electric origin               ... Center of mass
Position of electric origin             ...    -9.718878    -0.713596    -3.975280

General magnetic properties:
Magnetizability                         ...  NO

EPR properties:
g-Tensor (aka g-matrix)                 ...  NO
Zero-Field splitting spin-orbit         ...  NO
Zero-field splitting spin-spin          ...  NO
Hyperfine couplings                     ...  NO (   0 nuclei)
Quadrupole couplings                    ...  NO (   0 nuclei)
Contact density                         ...  NO (   0 nuclei)

NMR properties:
Chemical shifts                         ...  NO (   0 nuclei)
Spin-rotation constants                 ...  NO (   0 nuclei)
Spin-spin couplings                     ...  NO (   0 nuclei,    0 pairs)

Choice of magnetic origin               ... GIAO
Position of magnetic origin             ...     0.000000     0.000000     0.000000

Properties with geometric perturbations:
SCF Hessian                             ...  NO
IR spectrum                             ...  NO
VCD spectrum                            ...  NO
X-ray spectroscopy properties:
SCF XES/XAS/RIXS spectra                ...  NO

SCF SOC stabilization energy            ...  NO
Diagonal Born-Oppenheimer correction    ...  NO

-------------
DIPOLE MOMENT
-------------

Method             : SCF
Type of density    : Electron Density
Multiplicity       :   1
Irrep              :   0
Energy             :  -323.5296088087669659 Eh
Basis              : AO
                                X                 Y                 Z
Electronic contribution:      5.140569481       1.048828066       2.115784096
Nuclear contribution   :     -5.086799012      -0.521781494      -1.973119767
                        -----------------------------------------
Total Dipole Moment    :      0.053770468       0.527046572       0.142664329
                        -----------------------------------------
Magnitude (a.u.)       :      0.548655140
Magnitude (Debye)      :      1.394570539



--------------------
Rotational spectrum 
--------------------
 
Rotational constants in cm-1:             0.170343             0.104919             0.075890 
Rotational constants in MHz :          5106.746347          3145.378409          2275.130071 

Dipole components along the rotational axes: 
x,y,z [a.u.] :     0.374148    -0.387486     0.104358 
x,y,z [Debye]:     0.951008    -0.984911     0.265257 

 

Dipole moment calculation done in   0.0 sec 

Maximum memory used throughout the entire PROP-calculation: 7.1 MB

--------------------------------
SUGGESTED CITATIONS FOR THIS RUN
--------------------------------

Below you find a list of papers that are relevant to this ORCA run
We neither can nor want to force you to cite these papers, but we appreciate if you do
You receive ORCA, which is the product of decades of hard work by many enthusiastic individuals, for free
The only thing we kindly ask in return is that you cite our papers,
We deeply appreciate it, if you show your appreciation for ORCA by not just citing the generic ORCA reference.

Please note that relegating all ORCA citations to the supporting information does *not* help us.
SI sections are not indexed - citations you put there will not count into any citation statistics
But we need these citations in order to attract the funding resources that allow us to do what we are doing

Therefore, if you are a happy ORCA user, please consider citing a few of the papers listed below in the main body of your paper

In addition to the list printed below, the program has created the file 0.bibtex that contains the list in bibtex format
You can import this file easily into all common literature databanks and citation aid programs


List of essential papers. We consider these as the minimum necessary citations

  1. Neese, F.
     Software update: the ORCA program system, version 6.0
     WIRES Comput. Molec. Sci. 2025 15(1), e70019
     doi.org/10.1002/wcms.7019

List of papers to cite with high priority. The work reported in these papers was absolutely
necessary for this run to complete.
Our perspective: the developers of density functionals and basis sets usually get cited in chemistry papers
Good! But without the algorithms to do something with them, the functionals or basis sets would not do anything.
Hence, in our opinion, the algorithm design and method developments papers are equally worthy of getting cited

  1. Neese, F.
     An improvement of the resolution of the identity approximation for the formation of the Coulomb matrix
     J. Comp. Chem. 2003 24(14), 1740-1747
     doi.org/10.1002/jcc.10318
  2. Grimme, S.
     Semiempirical GGA-type density functional constructed with a long-range dispersion correction
     J.Comput.Chem. 2006 27(15), 1787-1799
     doi.org/10.1002/jcc.20495
  3. Neese, F.
     The SHARK Integral Generation and Digestion System
     J. Comp. Chem. 2022 44(3), 381
     doi.org/10.1002/jcc.26942

List of suggested additional citations. These are papers that are important in the 'surrounding' of 
of this run, or papers that preceded the highly important papers. If you like your results we are grateful for a citation.

  1. Neese, F.
     The ORCA program system
     WIRES Comput. Molec. Sci. 2012 2(1), 73-78
     doi.org/10.1002/wcms.81
  2. Neese, F.
     Software update: the ORCA program system, version 4.0
     WIRES Comput. Molec. Sci. 2018 8(1), 1-6
     doi.org/10.1002/wcms.1327
  3. Neese, F.; Wennmohs, F.; Becker, U.; Riplinger, C.
     The ORCA quantum chemistry program package
     J. Chem. Phys. 2020 152(22), 224108
     doi.org/10.1063/5.0004608
  4. Neese, F.
     Software update: The ORCA program system—Version 5.0
     WIRES Comput. Molec. Sci. 2022 12(1), e1606
     doi.org/10.1002/wcms.1606

List of optional additional citations

  1. Neese, F.
     Approximate second-order SCF convergence for spin unrestricted wavefunctions
     Chem. Phys. Lett. 2000 325(1-3), 93-98
     doi.org/10.1016/s0009-2614(00)00662-x

Timings for individual modules:

Sum of individual times          ...        3.101 sec (=   0.052 min)
Startup calculation              ...        0.242 sec (=   0.004 min)   7.8 %
SCF iterations                   ...        2.830 sec (=   0.047 min)  91.3 %
Property calculations            ...        0.029 sec (=   0.000 min)   0.9 %
                             ****ORCA TERMINATED NORMALLY****
TOTAL RUN TIME: 0 days 0 hours 0 minutes 3 seconds 140 msec
