
                                 *****************
                                 * O   R   C   A *
                                 *****************

                                            #,                                       
                                            ###                                      
                                            ####                                     
                                            #####                                    
                                            ######                                   
                                           ########,                                 
                                     ,,################,,,,,                         
                               ,,#################################,,                 
                          ,,##########################################,,             
                       ,#########################################, ''#####,          
                    ,#############################################,,   '####,        
                  ,##################################################,,,,####,       
                ,###########''''           ''''###############################       
              ,#####''   ,,,,##########,,,,          '''####'''          '####       
            ,##' ,,,,###########################,,,                        '##       
           ' ,,###''''                  '''############,,,                           
         ,,##''                                '''############,,,,        ,,,,,,###''
      ,#''                                            '''#######################'''  
     '                                                          ''''####''''         
             ,#######,   #######,   ,#######,      ##                                
            ,#'     '#,  ##    ##  ,#'     '#,    #''#        ,####,    ,#,          
            ##       ##  ##   ,#'  ##            #'  '#       #'       ,# #          
            ##       ##  #######   ##           ,######,      #####,      #          
            '#,     ,#'  ##    ##  '#,     ,#' ,#      #,     #,   #      #          
             '#######'   ##     ##  '#######'  #'      '#     '####' #    #          



                #########################################################
                #                        -***-                          #
                #          Department of theory and spectroscopy        #
                #                                                       #
                #                      Frank Neese                      #
                #                                                       #
                #     Directorship, Architecture, Infrastructure        #
                #                    SHARK, DRIVERS                     #
                #        Core code/Algorithms in most modules           #
                #                                                       #
                #        Max Planck Institute fuer Kohlenforschung      #
                #                Kaiser Wilhelm Platz 1                 #
                #                 D-45470 Muelheim/Ruhr                 #
                #                      Germany                          #
                #                                                       #
                #                  All rights reserved                  #
                #                        -***-                          #
                #########################################################


                         Program Version 6.1.0  -  RELEASE   -
                                (GIT: $679e74b$)
                          ($2025-06-10 18:02:51 +0200$)


 With contributions from (in alphabetic order):
[Max-Planck-Institut fuer Kohlenforschung]                               
  Daniel Aravena         : Magnetic Suceptibility                        
  Michael Atanasov       : Ab Initio Ligand Field Theory (pilot matlab implementation)
  Alexander A. Auer      : GIAO ZORA, VPT2 properties, NMR spectrum      
  Ute Becker             : All parallelization in ORCA, NUMFREQ, NUMCALC 
  Giovanni Bistoni       : ED, misc. LED, open-shell LED, HFLD           
  Dmytro Bykov           : pre 5.0 version of the SCF Hessian            
  Marcos Casanova-Páez   : Triplet and SCS-CIS(D). UHF-(DLPNO)-IP/EA/STEOM-CCSD. UHF-CVS-IP/STEOM-CCSD   
  Vijay G. Chilkuri      : MRCI spin determinant printing, contributions to CSF-ICE 
  Pauline Colinet        : FMM embedding                                 
  Dipayan Datta          : RHF DLPNO-CCSD density                        
  Achintya Kumar Dutta   : EOM-CC, STEOM-CC                              
  Nicolas Foglia         : Exact transition moments, OPA infrastructure, MCD improvements    
  Dmitry Ganyushin       : Spin-Orbit,Spin-Spin,Magnetic field MRCI      
  Miquel Garcia-Rates    : C-PCM and meta-GGA Hessian, CCSD/C-PCM, Gaussian charge scheme 
  Tiago L. C. Gouveia    : GS-ROHF, GS-ROCIS                             
  Yang Guo               : DLPNO-NEVPT2, F12-NEVPT2, CIM, IAO-localization        
  Andreas Hansen         : Spin unrestricted coupled pair/coupled cluster methods 
  Ingolf Harden          : AUTO-CI MPn and infrastructure                
  Benjamin Helmich-Paris : MC-RPA, TRAH-(SCF,CASSCF), AVAS, COSX integrals, SCF dyn. polar., MC-PDFT, srDFT 
  Lee Huntington         : MR-EOM, pCC                                   
  Robert Izsak           : Overlap fitted RIJCOSX, COSX-SCS-MP3, EOM     
  Riya Kayal             : Wick's Theorem for AUTO-CI, AUTO-CI UHF-CCSDT 
  Emily Kempfer          : AUTO-CI RHF CISDT and CCSDT, approximate NEVPT4
  Christian Kollmar      : KDIIS, OOCD, Brueckner-CCSD(T), CCSD density, CASPT2, CASPT2-K, improved NEVPT2 
  Axel Koslowski         : Symmetry handling                             
  Simone Kossmann        : meta-GGA functionals, TD-DFT gradient, OOMP2, (MP2 Hessian; deprecated post 5.0) 
  Lucas Lang             : DCDCAS, Hyperfine gauge corrections, ICE-SOC+SSC
  Marvin Lechner         : AUTO-CI (C++ implementation), FIC-MRCC        
  Spencer Leger          : CASSCF response                               
  Dagmar Lenk            : GEPOL surface, SMD, ORCA-2-JSON               
  Dimitrios Liakos       : Extrapolation schemes; Compound Job, Property file
  Dimitrios Manganas     : Further ROCIS development; embedding schemes. LFT, Crystal Embedding 
  Dimitrios Pantazis     : SARC Basis sets                               
  Anastasios Papadopoulos: AUTO-CI, single reference methods and gradients 
  Taras Petrenko         : pre 6.0 DFT Hessian and TD-DFT gradient,  ECA, NRVS 
  Petra Pikulova         : Analytic Raman intensities                    
  Peter Pinski           : DLPNO-MP2, DLPNO-MP2 Gradient                 
  Shashank Vittal Rao    : ES-AILFT, MagRelax                            
  Christoph Reimann      : Effective Core Potentials                     
  Marius Retegan         : Local ZFS, SOC                                
  Christoph Riplinger    : Optimizer, TS searches, QM/MM, DLPNO-CCSD(T), (RO)-DLPNO pert. Triples 
  Michael Roemelt        : Original ROCIS implementation, recursive CI coupling coefficients
  Masaaki Saitow         : Open-shell DLPNO-CCSD energy and density      
  Barbara Sandhoefer     : DKH picture change effects                    
  Yorick L. A. Schmerwitz: GMF and freeze-and-release deltaSCF, NEB S-IDPP initial path                    
  Kantharuban Sivalingam : CASSCF convergence/infrastructure, NEVPT2, NEVPT3, NEVPT4(SD), FIC-MRCI and CEPA variants
  Bernardo de Souza      : ESD, SOC TD-DFT                               
  Georgi L. Stoychev     : AutoAux, RI-MP2 NMR, DLPNO-MP2 response, X2C  
  Van Anh Tran           : RI-MP2 g-tensors                              
  Willem Van den Heuvel  : Paramagnetic NMR                              
  Zikuan Wang            : NOTCH, Electric field optimization            
  Frank Wennmohs         : Technical directorship and infrastructure     
  Hang Xu                : AUTO-CI-Response properties                   
                                                                         
[FACCTs GmbH]                                                            
  Markus Bursch, Nicolas Foglia, Miquel Garcia-Rates, Ingolf Harden, Hagen Neugebauer, Anastasios Papadopoulos, 
  Christoph Riplinger, Bernardo de Souza, Georgi L. Stoychev                                                    
                                                                 
  APM, various basis sets, CI-OPT, improved COSX, DLPNO-Multilevel,           
  DOCKER, DRACO, updates on ESD, Fragmentator, GOAT, IRC, LR-CPCM, L-BFGS, MBIS, meta-GGA TD-DFT gradient, ML-optimized integration grids, 
  MM, NACMEs, nearIR, NEB, NEB-TS, NL-DFT gradient (VV10), 2- and 3-layer-ONIOM, interface openCOSMO-RS, QMMM,   
  Crystal-QMMM, RESP, rigid body optimization, SF, symmetry and pop. for TD-DFT, various functionals, SOLVATOR                                   
                                                                         
[Other institutions]                                                     
  V. Asgeirsson          : NEB                                           
  Christoph Bannwarth    : sTDA-DFT, sTD-DFT, PBEh-3c, B97-3c, D3        
  Giovanni Bistoni       : ETS/NOCV, ADLD/ADEX, COVALED                  
  Martin Brehm           : Molecular dynamics                            
  Ronald Cardenas        : ETS/NOCV                                      
  Martina Colucci        : COVALED                                       
  Sebastian Ehlert       : rSCAN, r2SCAN, r2SCAN-3c, D4, dhf basis sets  
  Marvin Friede          : D4 for Fr, Ra, Ac-Lr                          
  Lars Goerigk           : TD-DFT with DH, B97 family of functionals     
  Stefan Grimme          : VdW corrections, initial TS optimization, DFT functionals, gCP, sTDA/sTD-DF 
  Waldemar Hujo          : DFT-NL                                        
  H. Jonsson             : NEB                                           
  Holger Kruse           : gCP                                           
  Marcel Mueller         : wB97X-3c, vDZP basis set                      
  Hagen Neugebauer       : wr2SCAN, Native XTB                           
  Gianluca Regni         : ADLD/ADEX                                     
  Tobias Risthaus        : pre 6.0 range-separated hybrid DFT and stability analysis
  Lukas Wittmann         : regularized MP2, r2SCAN double-hybrids, wr2SCAN        
                                                                         
We gratefully acknowledge several colleagues who have allowed us to      
interface, adapt or use parts of their codes:                            
  Ed Valeev, F. Pavosevic, A. Kumar             : LibInt (2-el integral package), F12 methods 
  Garnet Chan, S. Sharma, J. Yang, R. Olivares  : DMRG                   
  Ulf Ekstrom                                   : XCFun DFT Library      
  Mihaly Kallay                                 : mrcc  (arbitrary order and MRCC methods)
  Frank Weinhold                                : gennbo (NPA and NBO analysis)           
  Simon Mueller                                 : openCOSMO-RS                            
  Christopher J. Cramer and Donald G. Truhlar   : smd solvation model                     
  S Lehtola, MJT Oliveira, MAL Marques          : LibXC Library                           
  Liviu Ungur et al                             : ANISO software                          


 Your calculation uses the libint2 library for the computation of 2-el integrals
 For citations please refer to: http://libint.valeyev.net

 Your ORCA version has been built with support for libXC version: 7.0.0
 For citations please refer to: https://libxc.gitlab.io

 This ORCA versions uses:
   CBLAS   interface :  Fast vector & matrix operations
   LAPACKE interface :  Fast linear algebra routines
   SCALAPACK package :  Parallel linear algebra routines
   Shared memory     :  Shared parallel matrices
   BLAS/LAPACK       :  OpenBLAS 0.3.29  USE64BITINT DYNAMIC_ARCH NO_AFFINITY Haswell SINGLE_THREADED
        Core in use  :  Haswell
   Copyright (c) 2011-2014, The OpenBLAS Project


  ***********************************
  * Starting time: Sat Aug 30 14:51:52 2025
  * Host name:     chemlab03
  * Process ID:    75531
  * Working dir.:  /home/vivek/mm-project/vivek/xtb-goat/B97-D-opt/c/3
  ***********************************



***************************************
The coordinates will be read from file: /home/vivek/mm-project/vivek/xtb-goat/xtb-goat/c/C_CONF/3.xyz
***************************************


Your calculation utilizes empirical dispersion correction


Warning: RI is on but no J-basis has been assigned. Assigning Def2/J (nothing to worry about!)
================================================================================

----- Orbital basis set information -----
Your calculation utilizes the basis: 6-31G**
   H-He, Li-Ne : W. J. Hehre, R. Ditchfield and J.A. Pople, J. Chem. Phys. 56, 2257 (1972).
                 Note: He and Ne are unpublished basis sets taken from the Gaussian program.
                 Note: Li and B from J. D. Dill and J. A. Pople, J. Chem. Phys. 62, 2921 (1975).
   Na - Ar     : M. M. Francl, W. J. Pietro, W. J. Hehre, J. S. Binkley, M. S. Gordon, 
                 D. J. DeFrees and J. A. Pople, J. Chem. Phys. 77, 3654 (1982).
   K - Zn      : V. A. Rassolov, J. A. Pople, M. A. Ratner, and T. L. Windus, J. Chem. Phys. 109, 1223 (1998).

----- AuxJ basis set information -----
Your calculation utilizes the auxiliary basis: def2/J
   H-Rn: F. Weigend, Phys. Chem. Chem. Phys. 8, 1057 (2006).
   Fr-Lr: K. Eichkorn, F. Weigend, O. Treutler, R. Ahlrichs; Theor. Chem. Acc. 97, 119 (1997).

================================================================================
                                        WARNINGS
                       Please study these warnings very carefully!
================================================================================


WARNING: Geometry Optimization
  ===> : Switching off AutoStart
         For restart on a previous wavefunction, please use MOREAD

INFO   : The exchange functional is Grimme's B97(-D)
         As described in S. Grimme, J. Comput. Chem. 27, 1787 (2006).
         Note that this functional defaults to a pure GGA. 

INFO   : The correlation functional is Grimme's B97(-D)
         As described in S. Grimme, J. Comput. Chem. 27, 1787 (2006).

================================================================================
                                       INPUT FILE
================================================================================
NAME = 3.inp
|  1> ! B97-D 6-31G** opt
|  2> 
|  3> * xyzfile 0 1 /home/vivek/mm-project/vivek/xtb-goat/xtb-goat/c/C_CONF/3.xyz
|  4> 
|  5>                          ****END OF INPUT****
================================================================================

                       *****************************
                       * Geometry Optimization Run *
                       *****************************

Geometry optimization settings:
Update method            Update   .... BFGS
Choice of coordinates    CoordSys .... (2022) Redundant Internals
Initial Hessian          InHess   .... Almloef's Model
Max. no of cycles        MaxIter  .... 50

Convergence Tolerances:
Energy Change            TolE     ....  5.0000e-06 Eh
Max. Gradient            TolMAXG  ....  3.0000e-04 Eh/bohr
RMS Gradient             TolRMSG  ....  1.0000e-04 Eh/bohr
Max. Displacement        TolMAXD  ....  4.0000e-03 bohr
RMS Displacement         TolRMSD  ....  2.0000e-03 bohr
Strict Convergence                .... False

------------------------------------------------------------------------------
                        ORCA OPTIMIZATION COORDINATE SETUP
------------------------------------------------------------------------------

The optimization will be done in redundant internal coordinates (2022)
Making redundant internal coordinates   ...  (2022 redundants) done
Evaluating the initial hessian          ...  (Almloef) done
Evaluating the coordinates              ...  done
Calculating the B-matrix                .... done
Calculating the G-matrix                .... done
The number of degrees of freedom        ....   54

    -----------------------------------------------------------------
                    Redundant Internal Coordinates


    -----------------------------------------------------------------
         Definition                    Initial Value    Approx d2E/dq
    -----------------------------------------------------------------
      1. B(H   2,C   1)                  1.0882         0.362462   
      2. B(C   5,C   1)                  1.5335         0.368836   
      3. B(C   5,H   0)                  1.0969         0.351103   
      4. B(S   7,H   3)                  1.3296         0.402616   
      5. B(S   7,C   1)                  1.8255         0.340211   
      6. B(N   8,H   6)                  1.0136         0.427027   
      7. B(N   8,C   5)                  1.4487         0.450992   
      8. B(H   9,N   8)                  1.0172         0.421397   
      9. B(C  10,C   5)                  1.5302         0.373335   
     10. B(C  10,O   4)                  1.3337         0.688290   
     11. B(H  11,C   1)                  1.0886         0.361892   
     12. B(O  12,C  10)                  1.2006         1.121969   
     13. B(H  13,O   4)                  0.9710         0.499368   
     14. A(H   2,C   1,C   5)          109.7765         0.323987   
     15. A(H   2,C   1,H  11)          110.0921         0.291366   
     16. A(C   5,C   1,S   7)          113.1860         0.375631   
     17. A(H   2,C   1,S   7)          108.0731         0.335928   
     18. A(C   5,C   1,H  11)          110.0859         0.323904   
     19. A(S   7,C   1,H  11)          105.5236         0.335840   
     20. A(C  10,O   4,H  13)          110.5925         0.374224   
     21. A(C   1,C   5,N   8)          110.5436         0.372124   
     22. A(C   1,C   5,C  10)          109.7561         0.362520   
     23. A(H   0,C   5,N   8)          109.0849         0.331155   
     24. A(H   0,C   5,C  10)          107.7574         0.322941   
     25. A(N   8,C   5,C  10)          112.3301         0.372902   
     26. A(H   0,C   5,C   1)          107.1938         0.322300   
     27. A(C   1,S   7,H   3)           95.8083         0.366501   
     28. A(H   6,N   8,H   9)          106.4427         0.301340   
     29. A(C   5,N   8,H   9)          109.0564         0.338426   
     30. A(C   5,N   8,H   6)          110.4603         0.339176   
     31. A(O   4,C  10,C   5)          112.5453         0.401410   
     32. A(C   5,C  10,O  12)          123.8407         0.437944   
     33. A(O   4,C  10,O  12)          123.6122         0.486465   
     34. D(N   8,C   5,C   1,H   2)    -56.0608         0.010879   
     35. D(N   8,C   5,C   1,S   7)     64.7793         0.010879   
     36. D(H   0,C   5,C   1,H   2)     62.7206         0.010879   
     37. D(H   0,C   5,C   1,H  11)    -58.6238         0.010879   
     38. D(H   0,C   5,C   1,S   7)   -176.4393         0.010879   
     39. D(N   8,C   5,C   1,H  11)   -177.4053         0.010879   
     40. D(H   3,S   7,C   1,H   2)     52.0565         0.010000   
     41. D(H   3,S   7,C   1,H  11)    169.8110         0.010000   
     42. D(H   3,S   7,C   1,C   5)    -69.7434         0.010000   
     43. D(H   9,N   8,C   5,C   1)    -78.9594         0.017352   
     44. D(H   9,N   8,C   5,H   0)    163.4145         0.017352   
     45. D(H   6,N   8,C   5,C  10)    -72.6399         0.017352   
     46. D(H   6,N   8,C   5,C   1)    164.3925         0.017352   
     47. D(H   6,N   8,C   5,H   0)     46.7664         0.017352   
     48. D(C   5,C  10,O   4,H  13)    178.2354         0.035364   
     49. D(O  12,C  10,C   5,C   1)    120.4557         0.010424   
     50. D(O  12,C  10,C   5,H   0)   -123.1322         0.010424   
     51. D(O   4,C  10,C   5,N   8)    176.5804         0.010424   
     52. D(O   4,C  10,C   5,C   1)    -60.0102         0.010424   
     53. D(O   4,C  10,C   5,H   0)     56.4018         0.010424   
     54. D(O  12,C  10,O   4,H  13)     -2.2294         0.035364   
    -----------------------------------------------------------------

Number of atoms                         .... 14
Number of degrees of freedom            .... 54


         *************************************************************
         *                GEOMETRY OPTIMIZATION CYCLE   1            *
         *************************************************************
---------------------------------
CARTESIAN COORDINATES (ANGSTROEM)
---------------------------------
  H     -0.998915    1.963528    1.785494
  C     -2.845195    1.195860    1.043142
  H     -3.465796    1.809363    1.693288
  H     -4.049003    2.166732   -0.745638
  O     -0.375437   -0.183676    0.432425
  C     -1.495989    1.886639    0.810729
  H     -0.842008    3.762752    0.357600
  S     -3.771223    0.889871   -0.499962
  N     -1.692172    3.217404    0.272764
  H     -1.891218    3.147355   -0.722319
  C     -0.618901    1.017632   -0.093140
  H     -2.691050    0.215096    1.489793
  O     -0.188829    1.378315   -1.154503
  H      0.159001   -0.720338   -0.175199

----------------------------
CARTESIAN COORDINATES (A.U.)
----------------------------
  NO LB      ZA    FRAG     MASS         X           Y           Z
   0 H     1.0000    0     1.008   -1.887675    3.710530    3.374095
   1 C     6.0000    0    12.011   -5.376639    2.259848    1.971252
   2 H     1.0000    0     1.008   -6.549406    3.419201    3.199851
   3 H     1.0000    0     1.008   -7.651506    4.094530   -1.409052
   4 O     8.0000    0    15.999   -0.709474   -0.347097    0.817165
   5 C     6.0000    0    12.011   -2.827010    3.565231    1.532056
   6 H     1.0000    0     1.008   -1.591165    7.110571    0.675767
   7 S    16.0000    0    32.060   -7.126578    1.681613   -0.944791
   8 N     7.0000    0    14.007   -3.197741    6.080013    0.515450
   9 H     1.0000    0     1.008   -3.573885    5.947639   -1.364985
  10 C     6.0000    0    12.011   -1.169553    1.923046   -0.176009
  11 H     1.0000    0     1.008   -5.085348    0.406473    2.815300
  12 O     8.0000    0    15.999   -0.356835    2.604638   -2.181695
  13 H     1.0000    0     1.008    0.300468   -1.361241   -0.331078

--------------------------------
INTERNAL COORDINATES (ANGSTROEM)
--------------------------------
 H      0   0   0     0.000000000000     0.00000000     0.00000000
 C      1   0   0     2.132873866226     0.00000000     0.00000000
 H      2   1   0     1.088220115714    94.74999524     0.00000000
 H      2   1   3     2.364631093819   123.79331624    88.35354208
 O      1   2   3     2.613427654695    74.37128336   165.91629855
 C      1   2   3     1.096887511265    43.38054489   237.06037607
 H      6   1   2     2.037846433489    89.29159889   139.56904211
 S      4   2   1     1.329620995647    50.17680590   135.68502965
 N      7   6   1     1.013597394536    41.76414414   223.51734700
 H      9   7   6     1.017210432419   106.44268508   241.74135431
 C      5   1   2     1.333654207388    54.57803049    80.67774934
 H      2   1   3     1.088648436540    93.37598243   249.49956935
 O     11   5   1     1.200644081669   123.61223920   155.42080399
 H      5   1   2     0.970997756978   155.42074693   139.52411653

---------------------------
INTERNAL COORDINATES (A.U.)
---------------------------
 H      0   0   0     0.000000000000     0.00000000     0.00000000
 C      1   0   0     4.030547485365     0.00000000     0.00000000
 H      2   1   0     2.056437992123    94.74999524     0.00000000
 H      2   1   3     4.468505175072   123.79331624    88.35354208
 O      1   2   3     4.938662538189    74.37128336   165.91629855
 C      1   2   3     2.072816996009    43.38054489   237.06037607
 H      6   1   2     3.850971662283    89.29159889   139.56904211
 S      4   2   1     2.512619543684    50.17680590   135.68502965
 N      7   6   1     1.915421485729    41.76414414   223.51734700
 H      9   7   6     1.922249137840   106.44268508   241.74135431
 C      5   1   2     2.520241209315    54.57803049    80.67774934
 H      2   1   3     2.057247401182    93.37598243   249.49956935
 O     11   5   1     2.268888498668   123.61223920   155.42080399
 H      5   1   2     1.834919837341   155.42074693   139.52411653

---------------------
BASIS SET INFORMATION
---------------------
There are 5 groups of distinct atoms

 Group   1 Type H   : 4s1p contracted to 2s1p pattern {31/1}
 Group   2 Type C   : 10s4p1d contracted to 3s2p1d pattern {631/31/1}
 Group   3 Type O   : 10s4p1d contracted to 3s2p1d pattern {631/31/1}
 Group   4 Type S   : 16s10p1d contracted to 4s3p1d pattern {6631/631/1}
 Group   5 Type N   : 10s4p1d contracted to 3s2p1d pattern {631/31/1}

Atom   0H    basis set group =>   1
Atom   1C    basis set group =>   2
Atom   2H    basis set group =>   1
Atom   3H    basis set group =>   1
Atom   4O    basis set group =>   3
Atom   5C    basis set group =>   2
Atom   6H    basis set group =>   1
Atom   7S    basis set group =>   4
Atom   8N    basis set group =>   5
Atom   9H    basis set group =>   1
Atom  10C    basis set group =>   2
Atom  11H    basis set group =>   1
Atom  12O    basis set group =>   3
Atom  13H    basis set group =>   1
---------------------------------
AUXILIARY/J BASIS SET INFORMATION
---------------------------------
There are 5 groups of distinct atoms

 Group   1 Type H   : 5s2p1d contracted to 3s1p1d pattern {311/2/1}
 Group   2 Type C   : 12s5p4d2f1g contracted to 6s4p3d1f1g pattern {711111/2111/211/2/1}
 Group   3 Type O   : 12s5p4d2f1g contracted to 6s4p3d1f1g pattern {711111/2111/211/2/1}
 Group   4 Type S   : 14s5p5d2f1g contracted to 8s4p3d1f1g pattern {71111111/2111/311/2/1}
 Group   5 Type N   : 12s5p4d2f1g contracted to 6s4p3d1f1g pattern {711111/2111/211/2/1}

Atom   0H    basis set group =>   1
Atom   1C    basis set group =>   2
Atom   2H    basis set group =>   1
Atom   3H    basis set group =>   1
Atom   4O    basis set group =>   3
Atom   5C    basis set group =>   2
Atom   6H    basis set group =>   1
Atom   7S    basis set group =>   4
Atom   8N    basis set group =>   5
Atom   9H    basis set group =>   1
Atom  10C    basis set group =>   2
Atom  11H    basis set group =>   1
Atom  12O    basis set group =>   3
Atom  13H    basis set group =>   1
------------------------------------------------------------------------------
                             ORCA STARTUP CALCULATIONS
                           -- RI-GTO INTEGRALS CHOSEN --
------------------------------------------------------------------------------
------------------------------------------------------------------------------
                   ___                                                        
                  /   \      - P O W E R E D   B Y -                         
                 /     \                                                     
                 |  |  |   _    _      __       _____    __    __             
                 |  |  |  | |  | |    /  \     |  _  \  |  |  /  |          
                  \  \/   | |  | |   /    \    | | | |  |  | /  /          
                 / \  \   | |__| |  /  /\  \   | |_| |  |  |/  /          
                |  |  |   |  __  | /  /__\  \  |    /   |      \           
                |  |  |   | |  | | |   __   |  |    \   |  |\   \          
                \     /   | |  | | |  |  |  |  | |\  \  |  | \   \       
                 \___/    |_|  |_| |__|  |__|  |_| \__\ |__|  \__/        
                                                                              
                      - O R C A' S   B I G   F R I E N D -                    
                                      &                                       
                       - I N T E G R A L  F E E D E R -                       
                                                                              
 v1 FN, 2020, v2 2021, v3 2022-2024                                           
------------------------------------------------------------------------------


----------------------
SHARK INTEGRAL PACKAGE
----------------------

Number of atoms                             ...     14
Number of basis functions                   ...    137
Number of shells                            ...     65
Maximum angular momentum                    ...      2
Integral batch strategy                     ... SHARK/LIBINT Hybrid
RI-J (if used) integral strategy            ... SPLIT-RIJ (Revised 2003 algorithm where possible)
Printlevel                                  ...      1
Contraction scheme used                     ... SEGMENTED contraction
Prescreening option                         ... SCHWARTZ
   Thresh                                   ... 2.500e-11
   Tcut                                     ... 2.500e-12
   Tpresel                                  ... 2.500e-12 
Coulomb Range Separation                    ... NOT USED
Exchange Range Separation                   ... NOT USED
Multipole approximations                    ... NOT USED
Finite Nucleus Model                        ... NOT USED
CABS basis                                  ... NOT available
Auxiliary Coulomb fitting basis             ... AVAILABLE
   # of basis functions in Aux-J            ...    422
   # of shells in Aux-J                     ...    142
   Maximum angular momentum in Aux-J        ...      4
Auxiliary J/K fitting basis                 ... NOT available
Auxiliary Correlation fitting basis         ... NOT available
Auxiliary 'external' fitting basis          ... NOT available

Checking pre-screening integrals            ... done (  0.0 sec) Dimension = 65
   => SHARK Basis and OBASIS are compatible. Storing Pre-screening
Shell pair information
Shell pair cut-off parameter TPreSel        ...   2.5e-12
Total number of shell pairs                 ...      2145
Shell pairs after pre-screening             ...      2025
Total number of primitive shell pairs       ...     11826
Primitive shell pairs kept                  ...      7542
          la=0 lb=0:    618 shell pairs
          la=1 lb=0:    740 shell pairs
          la=1 lb=1:    239 shell pairs
          la=2 lb=0:    247 shell pairs
          la=2 lb=1:    153 shell pairs
          la=2 lb=2:     28 shell pairs

Checking whether 4 symmetric matrices of dimension 137 fit in memory
:Max Core in MB      =   4096.00
 MB in use           =      6.24
 MB left             =   4089.76
 MB needed           =      0.29
 Data fit in memory  = YES
Calculating RI/J V-Matrix + Cholesky decomp.... done (  0.0 sec)
Calculating Nuclear repulsion               ... done (  0.0 sec) ENN=    386.883511965239 Eh

Diagonalization of the overlap matrix:
Smallest eigenvalue                        ... 3.479e-03
Time for diagonalization                   ...    0.001 sec
Threshold for overlap eigenvalues          ... 1.000e-07
Number of eigenvalues below threshold      ... 0
Time for construction of square roots      ...    0.000 sec
Total time needed                          ...    0.001 sec

-------------------
DFT GRID GENERATION
-------------------

General Integration Accuracy     IntAcc      ... 4.388
Radial Grid Type                 RadialGrid  ... OptM3 with GC (2021)
Angular Grid (max. ang.)         AngularGrid ... 4 (Lebedev-302)
Angular grid pruning method      GridPruning ... 4 (adaptive)
Weight generation scheme         WeightScheme... mBecke (2022)
Basis function cutoff            BFCut       ... 1.0000e-11
Integration weight cutoff        WCut        ... 1.0000e-14
Partially contracted basis set               ... off
Rotationally invariant grid construction     ... off
Angular grids for H and He will be reduced by one unit

Total number of grid points                  ...    66141
Total number of batches                      ...     1043
Average number of points per batch           ...       63
Average number of grid points per atom       ...     4724
Grids setup in   0.2 sec
Initializing property integral containers    ... done (  0.0 sec)

SHARK setup successfully completed in   0.3 seconds

Maximum memory used throughout the entire STARTUP-calculation: 28.0 MB
-------------------------------------------------------------------------------
                                 ORCA GUESS
                   Start orbitals & Density for SCF / CASSCF
-------------------------------------------------------------------------------

------------
SCF SETTINGS
------------
Hamiltonian:
 Density Functional     Method          .... DFT(GTOs)
 Exchange Functional    Exchange        .... B97(D)
 Correlation Functional Correlation     .... B97(D)
 Gradients option       PostSCFGGA      .... off
 RI-approximation to the Coulomb term is turned on
   Number of AuxJ basis functions       .... 422


General Settings:
 Integral files         IntName         .... 3
 Hartree-Fock type      HFTyp           .... RHF
 Total Charge           Charge          ....    0
 Multiplicity           Mult            ....    1
 Number of Electrons    NEL             ....   64
 Basis Dimension        Dim             ....  137
 Nuclear Repulsion      ENuc            ....    386.8835119652 Eh

Convergence Acceleration:
 AO-DIIS                CNVDIIS         .... on
   Start iteration      DIISMaxIt       ....    12
   Startup error        DIISStart       ....  0.200000
   # of expansion vecs  DIISMaxEq       ....     5
   Bias factor          DIISBfac        ....   1.050
   Max. coefficient     DIISMaxC        ....  10.000
 MO-DIIS                CNVKDIIS        .... off
 Trust-Rad. Augm. Hess. CNVTRAH         .... auto
   Auto Start mean grad. ratio tolernc. ....  1.125000
   Auto Start start iteration           ....    50
   Auto Start num. interpolation iter.  ....    10
   Max. Number of Micro iterations      ....    24
   Max. Number of Macro iterations      .... Maxiter - #DIIS iter
   Number of Davidson start vectors     ....     2
   Converg. threshold    (grad. norm)   ....   1.000e-05
   Grad. Scal. Fac. for Micro threshold ....   0.100
   Minimum threshold for Micro iter.    ....   1.000e-02
   NR start threshold (gradient norm)   ....   1.000e-04
   Initial trust radius                 ....   0.400
   Minimum AH scaling param. (alpha)    ....   1.000
   Maximum AH scaling param. (alpha)    .... 1000.000
   Quad. conv. algorithm                .... NR
   White noise on init. David. guess    .... on
   Maximum white noise                  ....   0.010
   Pseudo random numbers                .... off
   Inactive MOs                         .... canonical
   Orbital update algorithm             .... Taylor
   Preconditioner                       .... Diag
   Full preconditioner red. dimension   ....   250
 SOSCF                 CNVSOSCF           .... on
   Start iteration     SOSCFMaxIt         ....   150
   Startup grad/error  SOSCFStart         ....  0.003300
   Hessian update      SOSCFHessUp        .... L-BFGS
   Autom. constraints  SOSCFAutoConstrain .... off
 Level Shifting         CNVShift        .... on
   Level shift para.    LevelShift      ....    0.2500
   Turn off err/grad.   ShiftErr        ....    0.0010
 Zerner damping         CNVZerner       .... off
 Static damping         CNVDamp         .... on
   Fraction old density DampFac         ....    0.7000
   Max. Damping (<1)    DampMax         ....    0.9800
   Min. Damping (>=0)   DampMin         ....    0.0000
   Turn off err/grad.   DampErr         ....    0.1000

SCF Procedure:
 Maximum # iterations   MaxIter         ....   125
 SCF integral mode      SCFMode         .... Direct
   Integral package                     .... SHARK and LIBINT hybrid scheme
 Reset frequency        DirectResetFreq ....    20
 Integral Threshold     Thresh          ....  2.500e-11 Eh
 Primitive CutOff       TCut            ....  2.500e-12 Eh

Convergence Tolerance:
 Convergence Check Mode ConvCheckMode   .... Total+1el-Energy
 Convergence forced     ConvForced      .... 0
 Energy Change          TolE            ....  1.000e-08 Eh
 1-El. energy change                    ....  1.000e-05 Eh
 Orbital Gradient       TolG            ....  1.000e-05
 Orbital Rotation angle TolX            ....  1.000e-05
 DIIS Error             TolErr          ....  5.000e-07

------------------------------
INITIAL GUESS: MODEL POTENTIAL
------------------------------
Loading Hartree-Fock densities                     ... done
Calculating cut-offs                               ... done
Initializing the effective Hamiltonian             ... done
Setting up the integral package (SHARK)            ... done
Starting the Coulomb interaction                   ... done (   0.0 sec)
Making the grid                                    ... done (   0.1 sec)
Mapping shells                                     ... done
Starting the XC term evaluation                    ... done (   0.1 sec)
  promolecular density results
     # of electrons  =     63.996161538
     EX              =    -64.730274457
     EC              =     -2.963110990
     EX+EC           =    -67.693385447
Transforming the Hamiltonian                       ... done (   0.0 sec)
Diagonalizing the Hamiltonian                      ... done (   0.0 sec)
Back transforming the eigenvectors                 ... done (   0.0 sec)
Now organizing SCF variables                       ... done
                      ------------------
                      INITIAL GUESS DONE (   0.2 sec)
                      ------------------
             **** ENERGY FILE WAS UPDATED (3.en.tmp) ****
Finished Guess after   0.2 sec
Maximum memory used throughout the entire GUESS-calculation: 10.4 MB

-------------------------------------------------------------------------------------------
                                      ORCA LEAN-SCF
                              memory conserving SCF solver
-------------------------------------------------------------------------------------------

----------------------------------------D-I-I-S--------------------------------------------
Iteration    Energy (Eh)           Delta-E    RMSDP     MaxDP     DIISErr   Damp  Time(sec)
-------------------------------------------------------------------------------------------
               ***  Starting incremental Fock matrix formation  ***
    1    -721.4639732822791984     0.00e+00  4.28e-03  1.04e-01  2.58e-01  0.700   0.3
    2    -721.5869155453978010    -1.23e-01  2.64e-03  5.39e-02  9.85e-02  0.700   0.3
                               ***Turning on AO-DIIS***
    3    -721.6225372267223293    -3.56e-02  1.00e-03  1.61e-02  2.46e-02  0.700   0.3
    4    -721.6467340772611578    -2.42e-02  1.36e-03  2.88e-02  1.32e-02  0.000   0.3
    5    -721.7037916296570756    -5.71e-02  4.87e-04  9.19e-03  9.05e-03  0.000   0.3
                              *** Initializing SOSCF ***
---------------------------------------S-O-S-C-F--------------------------------------
Iteration    Energy (Eh)           Delta-E    RMSDP     MaxDP     MaxGrad    Time(sec)
--------------------------------------------------------------------------------------
    6    -721.7043935701832424    -6.02e-04  1.63e-04  2.05e-03  3.01e-03     0.3
               *** Restarting incremental Fock matrix formation ***
    7    -721.7044435323117568    -5.00e-05  1.33e-04  2.79e-03  6.36e-04     0.3
    8    -721.7044340859669092     9.45e-06  6.60e-05  1.97e-03  1.74e-03     0.3
    9    -721.7044491480904753    -1.51e-05  5.70e-05  9.40e-04  2.65e-04     0.3
   10    -721.7044483890621223     7.59e-07  2.87e-05  5.01e-04  2.28e-04     0.3
   11    -721.7044505267575687    -2.14e-06  1.21e-05  2.21e-04  4.44e-05     0.3
   12    -721.7044504579981776     6.88e-08  6.58e-06  1.46e-04  5.31e-05     0.3
   13    -721.7044505851516760    -1.27e-07  2.04e-06  4.32e-05  4.12e-06     0.3
   14    -721.7044505880213592    -2.87e-09  9.81e-07  2.13e-05  6.04e-06     0.2
                 **** Energy Check signals convergence ****

               *****************************************************
               *                     SUCCESS                       *
               *           SCF CONVERGED AFTER  14 CYCLES          *
               *****************************************************

             **** ENERGY FILE WAS UPDATED (3.en.tmp) ****

----------------
TOTAL SCF ENERGY
----------------

Total Energy       :       -721.70445058890289 Eh          -19638.57651 eV

Components:
Nuclear Repulsion  :        386.88351196523911 Eh           10527.63558 eV
Electronic Energy  :      -1108.58796255414200 Eh          -30166.21208 eV
One Electron Energy:      -1759.96066996254035 Eh          -47890.96456 eV
Two Electron Energy:        651.37270740839836 Eh           17724.75248 eV

Virial components:
Potential Energy   :      -1441.19168885225986 Eh          -39216.81960 eV
Kinetic Energy     :        719.48723826335697 Eh           19578.24309 eV
Virial Ratio       :          2.00308165622353

DFT components:
N(Alpha)           :       31.999958724773 electrons
N(Beta)            :       31.999958724773 electrons
N(Total)           :       63.999917449546 electrons
E(X)               :      -65.651698115600 Eh       
E(C)               :       -2.955838160630 Eh       
E(XC)              :      -68.607536276230 Eh       

---------------
SCF CONVERGENCE
---------------

  Last Energy change         ...    2.8697e-09  Tolerance :   1.0000e-08
  Last MAX-Density change    ...    2.1297e-05  Tolerance :   1.0000e-07
  Last RMS-Density change    ...    9.8069e-07  Tolerance :   5.0000e-09
  Last DIIS Error            ...    3.0062e-03  Tolerance :   5.0000e-07
  Last Orbital Gradient      ...    6.0383e-06  Tolerance :   1.0000e-05
  Last Orbital Rotation      ...    5.6631e-06  Tolerance :   1.0000e-05


----------------
ORBITAL ENERGIES
----------------

  NO   OCC          E(Eh)            E(eV) 
   0   2.0000     -88.030580     -2395.4339 
   1   2.0000     -18.819442      -512.1031 
   2   2.0000     -18.757144      -510.4078 
   3   2.0000     -13.993793      -380.7905 
   4   2.0000     -10.032411      -272.9958 
   5   2.0000      -9.959303      -271.0064 
   6   2.0000      -9.945287      -270.6250 
   7   2.0000      -7.717197      -209.9956 
   8   2.0000      -5.751422      -156.5041 
   9   2.0000      -5.747296      -156.3919 
  10   2.0000      -5.739747      -156.1864 
  11   2.0000      -1.026016       -27.9193 
  12   2.0000      -0.937120       -25.5003 
  13   2.0000      -0.824448       -22.4344 
  14   2.0000      -0.722680       -19.6651 
  15   2.0000      -0.653896       -17.7934 
  16   2.0000      -0.587246       -15.9798 
  17   2.0000      -0.533724       -14.5234 
  18   2.0000      -0.469578       -12.7779 
  19   2.0000      -0.451081       -12.2745 
  20   2.0000      -0.424353       -11.5472 
  21   2.0000      -0.405781       -11.0419 
  22   2.0000      -0.390590       -10.6285 
  23   2.0000      -0.379881       -10.3371 
  24   2.0000      -0.350702        -9.5431 
  25   2.0000      -0.340638        -9.2692 
  26   2.0000      -0.328203        -8.9309 
  27   2.0000      -0.290088        -7.8937 
  28   2.0000      -0.277999        -7.5647 
  29   2.0000      -0.228744        -6.2244 
  30   2.0000      -0.210675        -5.7328 
  31   2.0000      -0.198408        -5.3990 
  32   0.0000      -0.021730        -0.5913 
  33   0.0000       0.008269         0.2250 
  34   0.0000       0.041973         1.1421 
  35   0.0000       0.049976         1.3599 
  36   0.0000       0.072200         1.9647 
  37   0.0000       0.103124         2.8061 
  38   0.0000       0.127101         3.4586 
  39   0.0000       0.136827         3.7233 
  40   0.0000       0.154994         4.2176 
  41   0.0000       0.183797         5.0014 
  42   0.0000       0.200593         5.4584 
*Only the first 10 virtual orbitals were printed.

                    ********************************
                    * MULLIKEN POPULATION ANALYSIS *
                    ********************************

-----------------------
MULLIKEN ATOMIC CHARGES
-----------------------
   0 H :    0.134890
   1 C :   -0.339250
   2 H :    0.160666
   3 H :    0.078614
   4 O :   -0.453859
   5 C :   -0.052451
   6 H :    0.249639
   7 S :   -0.062401
   8 N :   -0.556587
   9 H :    0.251438
  10 C :    0.514954
  11 H :    0.161348
  12 O :   -0.409136
  13 H :    0.322135
Sum of atomic charges:    0.0000000

--------------------------------
MULLIKEN REDUCED ORBITAL CHARGES
--------------------------------
  0 H s       :     0.853982  s :     0.853982
      pz      :     0.005811  p :     0.011128
      px      :     0.003439
      py      :     0.001878

  1 C s       :     3.303863  s :     3.303863
      pz      :     0.949513  p :     2.998863
      px      :     0.964551
      py      :     1.084798
      dz2     :     0.006161  d :     0.036524
      dxz     :     0.009145
      dyz     :     0.006646
      dx2y2   :     0.007755
      dxy     :     0.006819

  2 H s       :     0.827742  s :     0.827742
      pz      :     0.003915  p :     0.011592
      px      :     0.003849
      py      :     0.003828

  3 H s       :     0.905276  s :     0.905276
      pz      :     0.003209  p :     0.016109
      px      :     0.004633
      py      :     0.008267

  4 O s       :     3.823163  s :     3.823163
      pz      :     1.634863  p :     4.607953
      px      :     1.645661
      py      :     1.327429
      dz2     :     0.003511  d :     0.022744
      dxz     :     0.004741
      dyz     :     0.007618
      dx2y2   :     0.003043
      dxy     :     0.003831

  5 C s       :     3.199440  s :     3.199440
      pz      :     1.003855  p :     2.795800
      px      :     0.958555
      py      :     0.833389
      dz2     :     0.009087  d :     0.057211
      dxz     :     0.009556
      dyz     :     0.011738
      dx2y2   :     0.011405
      dxy     :     0.015426

  6 H s       :     0.726351  s :     0.726351
      pz      :     0.005705  p :     0.024011
      px      :     0.010494
      py      :     0.007812

  7 S s       :     5.853578  s :     5.853578
      pz      :     3.274960  p :    10.150486
      px      :     3.679079
      py      :     3.196447
      dz2     :     0.014635  d :     0.058337
      dxz     :     0.011493
      dyz     :     0.009336
      dx2y2   :     0.016993
      dxy     :     0.005880

  8 N s       :     3.586395  s :     3.586395
      pz      :     1.278169  p :     3.942080
      px      :     1.468133
      py      :     1.195778
      dz2     :     0.011278  d :     0.028111
      dxz     :     0.001004
      dyz     :     0.002824
      dx2y2   :     0.006068
      dxy     :     0.006937

  9 H s       :     0.724487  s :     0.724487
      pz      :     0.011941  p :     0.024075
      px      :     0.007166
      py      :     0.004967

 10 C s       :     2.977167  s :     2.977167
      pz      :     0.806364  p :     2.382677
      px      :     0.823169
      py      :     0.753145
      dz2     :     0.026861  d :     0.125203
      dxz     :     0.022613
      dyz     :     0.038759
      dx2y2   :     0.020196
      dxy     :     0.016774

 11 H s       :     0.826858  s :     0.826858
      pz      :     0.003245  p :     0.011793
      px      :     0.002533
      py      :     0.006016

 12 O s       :     3.858841  s :     3.858841
      pz      :     1.364107  p :     4.521930
      px      :     1.474046
      py      :     1.683777
      dz2     :     0.009910  d :     0.028365
      dxz     :     0.007784
      dyz     :     0.006607
      dx2y2   :     0.001845
      dxy     :     0.002219

 13 H s       :     0.639893  s :     0.639893
      pz      :     0.013383  p :     0.037972
      px      :     0.012996
      py      :     0.011593



                     *******************************
                     * LOEWDIN POPULATION ANALYSIS *
                     *******************************

----------------------
LOEWDIN ATOMIC CHARGES
----------------------
   0 H :    0.089414
   1 C :   -0.209374
   2 H :    0.087328
   3 H :    0.044248
   4 O :   -0.137345
   5 C :   -0.061858
   6 H :    0.130845
   7 S :    0.004734
   8 N :   -0.248548
   9 H :    0.129644
  10 C :    0.103663
  11 H :    0.092765
  12 O :   -0.210349
  13 H :    0.184834

-------------------------------
LOEWDIN REDUCED ORBITAL CHARGES
-------------------------------
  0 H s       :     0.870905  s :     0.870905
      pz      :     0.022585  p :     0.039681
      px      :     0.011120
      py      :     0.005977

  1 C s       :     2.955478  s :     2.955478
      pz      :     1.033871  p :     3.173347
      px      :     1.036832
      py      :     1.102644
      dz2     :     0.014472  d :     0.080550
      dxz     :     0.020639
      dyz     :     0.013343
      dx2y2   :     0.016431
      dxy     :     0.015665

  2 H s       :     0.870476  s :     0.870476
      pz      :     0.014915  p :     0.042196
      px      :     0.013660
      py      :     0.013621

  3 H s       :     0.906574  s :     0.906574
      pz      :     0.007725  p :     0.049178
      px      :     0.011375
      py      :     0.030078

  4 O s       :     3.467413  s :     3.467413
      pz      :     1.633486  p :     4.618765
      px      :     1.621842
      py      :     1.363437
      dz2     :     0.006003  d :     0.051168
      dxz     :     0.007252
      dyz     :     0.017381
      dx2y2   :     0.009986
      dxy     :     0.010545

  5 C s       :     2.886647  s :     2.886647
      pz      :     1.044027  p :     3.044190
      px      :     1.036519
      py      :     0.963644
      dz2     :     0.019354  d :     0.131022
      dxz     :     0.020981
      dyz     :     0.027812
      dx2y2   :     0.026248
      dxy     :     0.036627

  6 H s       :     0.789918  s :     0.789918
      pz      :     0.014975  p :     0.079237
      px      :     0.039526
      py      :     0.024735

  7 S s       :     5.648143  s :     5.648143
      pz      :     3.330492  p :    10.282565
      px      :     3.678559
      py      :     3.273515
      dz2     :     0.016274  d :     0.064558
      dxz     :     0.013988
      dyz     :     0.010117
      dx2y2   :     0.017973
      dxy     :     0.006206

  8 N s       :     3.194475  s :     3.194475
      pz      :     1.291363  p :     3.997045
      px      :     1.461794
      py      :     1.243888
      dz2     :     0.020830  d :     0.057028
      dxz     :     0.002007
      dyz     :     0.007773
      dx2y2   :     0.012492
      dxy     :     0.013926

  9 H s       :     0.789945  s :     0.789945
      pz      :     0.045918  p :     0.080411
      px      :     0.020620
      py      :     0.013873

 10 C s       :     2.855241  s :     2.855241
      pz      :     0.983525  p :     2.740786
      px      :     0.861407
      py      :     0.895854
      dz2     :     0.062597  d :     0.300309
      dxz     :     0.052427
      dyz     :     0.098842
      dx2y2   :     0.048426
      dxy     :     0.038017

 11 H s       :     0.865354  s :     0.865354
      pz      :     0.010485  p :     0.041881
      px      :     0.007406
      py      :     0.023990

 12 O s       :     3.553196  s :     3.553196
      pz      :     1.451136  p :     4.598669
      px      :     1.472536
      py      :     1.674998
      dz2     :     0.020752  d :     0.058484
      dxz     :     0.016195
      dyz     :     0.014324
      dx2y2   :     0.003486
      dxy     :     0.003727

 13 H s       :     0.699502  s :     0.699502
      pz      :     0.042336  p :     0.115664
      px      :     0.039305
      py      :     0.034023



                      *****************************
                      * MAYER POPULATION ANALYSIS *
                      *****************************

  NA   - Mulliken gross atomic population
  ZA   - Total nuclear charge
  QA   - Mulliken gross atomic charge
  VA   - Mayer's total valence
  BVA  - Mayer's bonded valence
  FA   - Mayer's free valence

  ATOM       NA         ZA         QA         VA         BVA        FA
  0 H      0.8651     1.0000     0.1349     0.9483     0.9483     0.0000
  1 C      6.3392     6.0000    -0.3392     3.8441     3.8441     0.0000
  2 H      0.8393     1.0000     0.1607     0.9401     0.9401     0.0000
  3 H      0.9214     1.0000     0.0786     0.9727     0.9727    -0.0000
  4 O      8.4539     8.0000    -0.4539     2.0334     2.0334     0.0000
  5 C      6.0525     6.0000    -0.0525     3.8599     3.8599     0.0000
  6 H      0.7504     1.0000     0.2496     0.9191     0.9191    -0.0000
  7 S     16.0624    16.0000    -0.0624     2.0063     2.0063     0.0000
  8 N      7.5566     7.0000    -0.5566     2.9010     2.9010     0.0000
  9 H      0.7486     1.0000     0.2514     0.9347     0.9347     0.0000
 10 C      5.4850     6.0000     0.5150     3.9486     3.9486    -0.0000
 11 H      0.8387     1.0000     0.1613     0.9469     0.9469     0.0000
 12 O      8.4091     8.0000    -0.4091     2.1266     2.1266    -0.0000
 13 H      0.6779     1.0000     0.3221     0.9145     0.9145    -0.0000

  Mayer bond orders larger than 0.100000
B(  0-H ,  5-C ) :   0.9196 B(  1-C ,  2-H ) :   0.9360 B(  1-C ,  5-C ) :   0.9582 
B(  1-C ,  7-S ) :   1.0026 B(  1-C , 11-H ) :   0.9372 B(  3-H ,  7-S ) :   0.9461 
B(  4-O , 10-C ) :   1.0822 B(  4-O , 13-H ) :   0.8496 B(  5-C ,  8-N ) :   1.0627 
B(  5-C , 10-C ) :   0.8937 B(  6-H ,  8-N ) :   0.9066 B(  8-N ,  9-H ) :   0.8904 
B( 10-C , 12-O ) :   1.9335 

-------
TIMINGS
-------

Total SCF time: 0 days 0 hours 0 min 4 sec 

Total time                  ....       4.177 sec
Sum of individual times     ....       3.893 sec  ( 93.2%)

SCF preparation             ....       0.025 sec  (  0.6%)
Fock matrix formation       ....       3.840 sec  ( 91.9%)
  Startup                   ....       0.001 sec  (  0.0% of F)
  Split-RI-J                ....       1.172 sec  ( 30.5% of F)
  XC integration            ....       2.899 sec  ( 75.5% of F)
    XC Preparation          ....       0.000 sec  (  0.0% of XC)
    Basis function eval.    ....       1.017 sec  ( 35.1% of XC)
    Density eval.           ....       0.579 sec  ( 20.0% of XC)
    XC-Functional eval.     ....       0.606 sec  ( 20.9% of XC)
    XC-Potential eval.      ....       0.624 sec  ( 21.5% of XC)
Diagonalization             ....       0.000 sec  (  0.0%)
Density matrix formation    ....       0.003 sec  (  0.1%)
Total Energy calculation    ....       0.001 sec  (  0.0%)
Population analysis         ....       0.002 sec  (  0.0%)
Orbital Transformation      ....       0.003 sec  (  0.1%)
Orbital Orthonormalization  ....       0.000 sec  (  0.0%)
DIIS solution               ....       0.012 sec  (  0.3%)
SOSCF solution              ....       0.009 sec  (  0.2%)
Finished LeanSCF after   4.2 sec

Maximum memory used throughout the entire LEANSCF-calculation: 14.9 MB



-------------------------------------------------------------------------------
                          DFT DISPERSION CORRECTION                            
-------------------------------------------------------------------------------
Active option DFTDOPT                   ...         2   
Final C6-coefficient scaling factor     ...     1.250
Final VDW-radii scaling factor          ...     1.100
Damping factor alpha                    ...    20.000
-------------------------   ----------------
Dispersion correction           -0.017256455
-------------------------   ----------------


-------------------------   --------------------
FINAL SINGLE POINT ENERGY      -721.721707043740
-------------------------   --------------------

------------------------------------------------------------------------------
                         ORCA SCF GRADIENT CALCULATION
------------------------------------------------------------------------------

Nuc. rep. gradient        (SHARK) ... done (  0.0 sec)
HCore & Overlap gradient  (SHARK) ... done (  0.1 sec)
Split-RIJ-J gradient      (SHARK) ... done (  0.4 sec)
XC gradient                       ... done (  1.4 sec)
Dispersion correction             ... done (  0.0 sec)

-------------------
DISPERSION GRADIENT
-------------------

   1   H   :    0.000148299    0.000142743    0.000051014
   2   C   :    0.000175856    0.000310038   -0.000236993
   3   H   :   -0.000094772   -0.001002917   -0.000104410
   4   H   :   -0.000904150   -0.000484721   -0.000158711
   5   O   :    0.000545376   -0.000175768   -0.000302597
   6   C   :   -0.000658391   -0.000432493   -0.000332803
   7   H   :   -0.000142827    0.000873163   -0.000238427
   8   S   :    0.000186986    0.000061478    0.001122698
   9   N   :    0.000862599   -0.000579868    0.000102182
  10   H   :    0.000874451    0.000874052   -0.000048416
  11   C   :   -0.000468688    0.000149287    0.000257035
  12   H   :   -0.001121849    0.000572007   -0.000022680
  13   O   :    0.000454924   -0.000529032    0.000193944
  14   H   :    0.000142187    0.000222032   -0.000281835

Difference to translation invariance:
           :   -0.0000000000   -0.0000000000    0.0000000000

Difference to rotation invariance:
           :    0.0000000000    0.0000000000    0.0000000000

Norm of the Dispersion gradient    ...    0.0032880050
RMS gradient                       ...    0.0005073502
MAX gradient                       ...    0.0011226983

------------------
CARTESIAN GRADIENT
------------------

   1   H   :   -0.001263650   -0.000491968   -0.003538935
   2   C   :    0.001075869   -0.000145603   -0.001106596
   3   H   :    0.001287477   -0.002938628   -0.005516998
   4   H   :    0.002336154   -0.010713445    0.002213847
   5   O   :    0.001308800    0.022274282   -0.020218392
   6   C   :    0.000023065   -0.001447969    0.000708299
   7   H   :   -0.004066031   -0.000292983    0.001156819
   8   S   :    0.005307474    0.013396395    0.005904966
   9   N   :    0.007884784   -0.007421690   -0.005244066
  10   H   :   -0.001966792    0.001038380    0.002568645
  11   C   :    0.002297771   -0.005964503   -0.008091489
  12   H   :   -0.000346845    0.004516856   -0.003065330
  13   O   :   -0.012141159   -0.009225273    0.028787444
  14   H   :   -0.001736915   -0.002583853    0.005441787

Difference to translation invariance:
           :   -0.0000000000    0.0000000000   -0.0000000000

Difference to rotation invariance:
           :    0.0000480839    0.0002124850    0.0001491311

Norm of the Cartesian gradient     ...    0.0523966438
RMS gradient                       ...    0.0080849777
MAX gradient                       ...    0.0287874437

-------
TIMINGS
-------

Total SCF gradient time     ....        1.810 sec

Densities                   ....       0.000 sec  (  0.0%)
One electron gradient       ....       0.059 sec  (  3.2%)
RI-J Coulomb gradient       ....       0.352 sec  ( 19.4%)
XC gradient                 ....       1.400 sec  ( 77.3%)

Maximum memory used throughout the entire SCFGRAD-calculation: 19.4 MB
------------------------------------------------------------------------------
                         ORCA GEOMETRY RELAXATION STEP
------------------------------------------------------------------------------

Reading the OPT-File                    .... done
Getting information on internals        .... done
Copying old internal coords+grads       .... done
Making the new internal coordinates     .... (2022 redundants) done
Validating the new internal coordinates .... (2022 redundants) done
Calculating the B-matrix                .... done
Calculating the G,G- and P matrices     .... done
Transforming gradient to internals      .... done
Projecting the internal gradient        .... done
Number of atoms                         ....  14
Number of internal coordinates          ....  54
Current Energy                          ....  -721.721707044 Eh
Current gradient norm                   ....     0.052396644 Eh/bohr
Maximum allowed component of the step   ....  0.300
Current trust radius                    ....  0.300
Evaluating the initial hessian          ....  (Almloef) done
Projecting the Hessian                  .... done
Forming the augmented Hessian           .... done
Diagonalizing the augmented Hessian     .... done
Last element of RFO vector              ....  0.987765217
Lowest eigenvalues of augmented Hessian:
 -0.005015243  0.010000531  0.010434513  0.011019146  0.017353627
Length of the computed step             ....  0.157879942
The final length of the internal step   ....  0.157879942
Converting the step to Cartesian space:
 Initial RMS(Int)=    0.0214847388
Transforming coordinates:
 Iter   0:  RMS(Cart)=    0.0607235325 RMS(Int)=    0.0216327004
 Iter   5:  RMS(Cart)=    0.0000000053 RMS(Int)=    0.0000000037
done
Storing new coordinates                 .... done

                                .--------------------.
          ----------------------|Geometry convergence|-------------------------
          Item                value                   Tolerance       Converged
          ---------------------------------------------------------------------
          RMS gradient        0.0069322516            0.0001000000      NO
          MAX gradient        0.0325718892            0.0003000000      NO
          RMS step            0.0214847388            0.0020000000      NO
          MAX step            0.0599399261            0.0040000000      NO
          -------------------------------------------------------------------------
          ........................................................
          Max(Bonds)      0.0180      Max(Angles)    1.54
          Max(Dihed)        3.43      Max(Improp)    0.00
          ---------------------------------------------------------------------

The optimization has not yet converged - more geometry cycles are needed


    ---------------------------------------------------------------------------
                         Redundant Internal Coordinates
                            (Angstroem and degrees)

        Definition                    Value    dE/dq     Step     New-Value
    ----------------------------------------------------------------------------
     1. B(H   2,C   1)                1.0882 -0.005686  0.0082    1.0964   
     2. B(C   5,C   1)                1.5335 -0.010595  0.0150    1.5485   
     3. B(C   5,H   0)                1.0969 -0.003752  0.0056    1.1025   
     4. B(S   7,H   3)                1.3296 -0.011182  0.0145    1.3441   
     5. B(S   7,C   1)                1.8255 -0.011183  0.0171    1.8426   
     6. B(N   8,H   6)                1.0136 -0.003469  0.0042    1.0178   
     7. B(N   8,C   5)                1.4487 -0.005823  0.0068    1.4555   
     8. B(H   9,N   8)                1.0172 -0.002200  0.0027    1.0199   
     9. B(C  10,C   5)                1.5302 -0.011946  0.0167    1.5469   
    10. B(C  10,O   4)                1.3337 -0.023629  0.0180    1.3517   
    11. B(H  11,C   1)                1.0886 -0.005379  0.0078    1.0964   
    12. B(O  12,C  10)                1.2006 -0.032572  0.0153    1.2159   
    13. B(H  13,O   4)                0.9710 -0.002937  0.0031    0.9741   
    14. A(H   2,C   1,C   5)          109.78  0.003647   -0.72    109.06   
    15. A(H   2,C   1,H  11)          110.09  0.000345   -0.63    109.46   
    16. A(C   5,C   1,S   7)          113.19 -0.007317    1.38    114.57   
    17. A(H   2,C   1,S   7)          108.07  0.000440    0.15    108.22   
    18. A(C   5,C   1,H  11)          110.09  0.001181   -0.17    109.91   
    19. A(S   7,C   1,H  11)          105.52  0.001663   -0.00    105.52   
    20. A(C  10,O   4,H  13)          110.59  0.010179   -1.54    109.05   
    21. A(C   1,C   5,N   8)          110.54  0.000563    0.33    110.87   
    22. A(C   1,C   5,C  10)          109.76 -0.003224    1.20    110.96   
    23. A(H   0,C   5,N   8)          109.08  0.000406   -0.65    108.43   
    24. A(H   0,C   5,C  10)          107.76  0.004113   -0.99    106.77   
    25. A(N   8,C   5,C  10)          112.33 -0.003134    0.93    113.26   
    26. A(H   0,C   5,C   1)          107.19  0.001624   -0.96    106.23   
    27. A(C   1,S   7,H   3)           95.81 -0.000318    0.05     95.86   
    28. A(H   6,N   8,H   9)          106.44 -0.000231   -0.70    105.74   
    29. A(C   5,N   8,H   9)          109.06  0.001889   -0.64    108.42   
    30. A(C   5,N   8,H   6)          110.46  0.002062   -0.66    109.80   
    31. A(O   4,C  10,C   5)          112.55  0.005307   -0.72    111.83   
    32. A(C   5,C  10,O  12)          123.84 -0.003452    0.48    124.32   
    33. A(O   4,C  10,O  12)          123.61 -0.001859    0.24    123.85   
    34. D(N   8,C   5,C   1,H   2)    -56.06  0.001493   -2.25    -58.32   
    35. D(N   8,C   5,C   1,S   7)     64.78 -0.000277   -1.65     63.13   
    36. D(H   0,C   5,C   1,H   2)     62.72  0.003267   -3.43     59.29   
    37. D(H   0,C   5,C   1,H  11)    -58.62 -0.000283   -2.07    -60.69   
    38. D(H   0,C   5,C   1,S   7)   -176.44  0.001498   -2.83   -179.27   
    39. D(N   8,C   5,C   1,H  11)   -177.41 -0.002058   -0.89   -178.30   
    40. D(H   3,S   7,C   1,H   2)     52.06 -0.000487    0.47     52.52   
    41. D(H   3,S   7,C   1,H  11)    169.81  0.000983   -0.20    169.61   
    42. D(H   3,S   7,C   1,C   5)    -69.74 -0.000666    0.38    -69.37   
    43. D(H   9,N   8,C   5,C   1)    -78.96  0.003521   -2.23    -81.19   
    44. D(H   9,N   8,C   5,H   0)    163.41  0.000967   -0.85    162.56   
    45. D(H   6,N   8,C   5,C  10)    -72.64 -0.004496    1.83    -70.81   
    46. D(H   6,N   8,C   5,C   1)    164.39  0.001502   -0.63    163.76   
    47. D(H   6,N   8,C   5,H   0)     46.77 -0.001052    0.75     47.52   
    48. D(C   5,C  10,O   4,H  13)    178.24  0.000241   -0.02    178.22   
    49. D(O  12,C  10,C   5,C   1)    120.46 -0.001616    1.45    121.91   
    50. D(O  12,C  10,C   5,H   0)   -123.13  0.000892    0.40   -122.74   
    51. D(O   4,C  10,C   5,N   8)    176.58  0.001613   -0.30    176.28   
    52. D(O   4,C  10,C   5,C   1)    -60.01 -0.002209    1.65    -58.36   
    53. D(O   4,C  10,C   5,H   0)     56.40  0.000299    0.59     57.00   
    54. D(O  12,C  10,O   4,H  13)     -2.23 -0.000359    0.18     -2.05   
    ----------------------------------------------------------------------------

Geometry step timings:
Preparation and reading OPT file:      0.000 s ( 0.155 %)
Internal coordinates            :      0.000 s ( 0.129 %)
B/P matrices and projection     :      0.000 s ( 3.405 %)
Hessian update/contruction      :      0.000 s ( 0.997 %)
Making the step                 :      0.000 s ( 2.227 %)
Converting the step to Cartesian:      0.000 s ( 0.401 %)
Storing new data                :      0.000 s ( 0.168 %)
Checking convergence            :      0.000 s ( 0.168 %)
Final printing                  :      0.007 s (92.349 %)
Total time                      :      0.008 s

Time for energy+gradient        :      6.550 s
Time for complete geometry iter :      6.569 s

         *************************************************************
         *                GEOMETRY OPTIMIZATION CYCLE   2            *
         *************************************************************
---------------------------------
CARTESIAN COORDINATES (ANGSTROEM)
---------------------------------
  H     -1.015396    1.966109    1.771669
  C     -2.860791    1.186065    1.027469
  H     -3.453610    1.788094    1.726210
  H     -4.146349    2.211346   -0.705608
  O     -0.351867   -0.199545    0.459706
  C     -1.500873    1.885817    0.785115
  H     -0.836715    3.765158    0.355001
  S     -3.864242    0.914317   -0.493861
  N     -1.695907    3.228225    0.257519
  H     -1.866077    3.158496   -0.745705
  C     -0.578431    1.011377   -0.096534
  H     -2.696908    0.188865    1.452723
  O     -0.107441    1.367340   -1.159532
  H      0.207871   -0.725130   -0.139697

----------------------------
CARTESIAN COORDINATES (A.U.)
----------------------------
  NO LB      ZA    FRAG     MASS         X           Y           Z
   0 H     1.0000    0     1.008   -1.918821    3.715408    3.347969
   1 C     6.0000    0    12.011   -5.406112    2.241339    1.941634
   2 H     1.0000    0     1.008   -6.526376    3.379007    3.262064
   3 H     1.0000    0     1.008   -7.835464    4.178838   -1.333407
   4 O     8.0000    0    15.999   -0.664932   -0.377085    0.868718
   5 C     6.0000    0    12.011   -2.836238    3.563677    1.483652
   6 H     1.0000    0     1.008   -1.581161    7.115118    0.670854
   7 S    16.0000    0    32.060   -7.302360    1.727809   -0.933262
   8 N     7.0000    0    14.007   -3.204799    6.100462    0.486640
   9 H     1.0000    0     1.008   -3.526374    5.968692   -1.409178
  10 C     6.0000    0    12.011   -1.093076    1.911225   -0.182423
  11 H     1.0000    0     1.008   -5.096418    0.356902    2.745248
  12 O     8.0000    0    15.999   -0.203034    2.583898   -2.191198
  13 H     1.0000    0     1.008    0.392819   -1.370297   -0.263988

--------------------------------
INTERNAL COORDINATES (ANGSTROEM)
--------------------------------
 H      0   0   0     0.000000000000     0.00000000     0.00000000
 C      1   0   0     2.137237751681     0.00000000     0.00000000
 H      2   1   0     1.096408439946    92.55285895     0.00000000
 H      2   1   3     2.389019680815   124.09710327    87.27620831
 O      1   2   3     2.617551345855    75.07129194   162.82779190
 C      1   2   3     1.102462618662    44.07711516   234.43536429
 H      6   1   2     2.039124306464    88.75106219   139.45837304
 S      4   2   1     1.344136955519    50.10806127   138.47181921
 N      7   6   1     1.017846278555    42.19011739   224.40366493
 H      9   7   6     1.019940296039   105.72999171   243.24733790
 C      5   1   2     1.351689805373    54.73025783    81.99890658
 H      2   1   3     1.096406924083    93.88965709   250.29520359
 O     11   5   1     1.215938266905   123.85474059   155.26987157
 H      5   1   2     0.974078758724   154.22523448   138.96961951

---------------------------
INTERNAL COORDINATES (A.U.)
---------------------------
 H      0   0   0     0.000000000000     0.00000000     0.00000000
 C      1   0   0     4.038794033754     0.00000000     0.00000000
 H      2   1   0     2.071911682418    92.55285895     0.00000000
 H      2   1   3     4.514592925288   124.09710327    87.27620831
 O      1   2   3     4.946455185143    75.07129194   162.82779190
 C      1   2   3     2.083352422158    44.07711516   234.43536429
 H      6   1   2     3.853386492239    88.75106219   139.45837304
 S      4   2   1     2.540050732414    50.10806127   138.47181921
 N      7   6   1     1.923450712900    42.19011739   224.40366493
 H      9   7   6     1.927407832465   105.72999171   243.24733790
 C      5   1   2     2.554323550169    54.73025783    81.99890658
 H      2   1   3     2.071908817852    93.88965709   250.29520359
 O     11   5   1     2.297790320205   123.85474059   155.26987157
 H      5   1   2     1.840742086858   154.22523448   138.96961951

------------------------------------------------------------------------------
                   ___                                                        
                  /   \      - P O W E R E D   B Y -                         
                 /     \                                                     
                 |  |  |   _    _      __       _____    __    __             
                 |  |  |  | |  | |    /  \     |  _  \  |  |  /  |          
                  \  \/   | |  | |   /    \    | | | |  |  | /  /          
                 / \  \   | |__| |  /  /\  \   | |_| |  |  |/  /          
                |  |  |   |  __  | /  /__\  \  |    /   |      \           
                |  |  |   | |  | | |   __   |  |    \   |  |\   \          
                \     /   | |  | | |  |  |  |  | |\  \  |  | \   \       
                 \___/    |_|  |_| |__|  |__|  |_| \__\ |__|  \__/        
                                                                              
                      - O R C A' S   B I G   F R I E N D -                    
                                      &                                       
                       - I N T E G R A L  F E E D E R -                       
                                                                              
 v1 FN, 2020, v2 2021, v3 2022-2024                                           
------------------------------------------------------------------------------


----------------------
SHARK INTEGRAL PACKAGE
----------------------

Number of atoms                             ...     14
Number of basis functions                   ...    137
Number of shells                            ...     65
Maximum angular momentum                    ...      2
Integral batch strategy                     ... SHARK/LIBINT Hybrid
RI-J (if used) integral strategy            ... SPLIT-RIJ (Revised 2003 algorithm where possible)
Printlevel                                  ...      1
Contraction scheme used                     ... SEGMENTED contraction
Prescreening option                         ... SCHWARTZ
   Thresh                                   ... 2.500e-11
   Tcut                                     ... 2.500e-12
   Tpresel                                  ... 2.500e-12 
Coulomb Range Separation                    ... NOT USED
Exchange Range Separation                   ... NOT USED
Multipole approximations                    ... NOT USED
Finite Nucleus Model                        ... NOT USED
CABS basis                                  ... NOT available
Auxiliary Coulomb fitting basis             ... AVAILABLE
   # of basis functions in Aux-J            ...    422
   # of shells in Aux-J                     ...    142
   Maximum angular momentum in Aux-J        ...      4
Auxiliary J/K fitting basis                 ... NOT available
Auxiliary Correlation fitting basis         ... NOT available
Auxiliary 'external' fitting basis          ... NOT available

Checking pre-screening integrals            ... done (  0.0 sec) Dimension = 65
   => SHARK Basis and OBASIS are compatible. Storing Pre-screening
Shell pair information
Shell pair cut-off parameter TPreSel        ...   2.5e-12
Total number of shell pairs                 ...      2145
Shell pairs after pre-screening             ...      2016
Total number of primitive shell pairs       ...     11826
Primitive shell pairs kept                  ...      7479
          la=0 lb=0:    618 shell pairs
          la=1 lb=0:    738 shell pairs
          la=1 lb=1:    238 shell pairs
          la=2 lb=0:    243 shell pairs
          la=2 lb=1:    151 shell pairs
          la=2 lb=2:     28 shell pairs

Checking whether 4 symmetric matrices of dimension 137 fit in memory
:Max Core in MB      =   4096.00
 MB in use           =      6.37
 MB left             =   4089.63
 MB needed           =      0.29
 Data fit in memory  = YES
Calculating RI/J V-Matrix + Cholesky decomp.... done (  0.0 sec)
Calculating Nuclear repulsion               ... done (  0.0 sec) ENN=    381.058817164530 Eh

Diagonalization of the overlap matrix:
Smallest eigenvalue                        ... 3.820e-03
Time for diagonalization                   ...    0.001 sec
Threshold for overlap eigenvalues          ... 1.000e-07
Number of eigenvalues below threshold      ... 0
Time for construction of square roots      ...    0.000 sec
Total time needed                          ...    0.001 sec

-------------------
DFT GRID GENERATION
-------------------

General Integration Accuracy     IntAcc      ... 4.388
Radial Grid Type                 RadialGrid  ... OptM3 with GC (2021)
Angular Grid (max. ang.)         AngularGrid ... 4 (Lebedev-302)
Angular grid pruning method      GridPruning ... 4 (adaptive)
Weight generation scheme         WeightScheme... mBecke (2022)
Basis function cutoff            BFCut       ... 1.0000e-11
Integration weight cutoff        WCut        ... 1.0000e-14
Partially contracted basis set               ... off
Rotationally invariant grid construction     ... off
Angular grids for H and He will be reduced by one unit

Total number of grid points                  ...    66195
Total number of batches                      ...     1043
Average number of points per batch           ...       63
Average number of grid points per atom       ...     4728
Grids setup in   0.2 sec
Initializing property integral containers    ... done (  0.0 sec)

SHARK setup successfully completed in   0.3 seconds

Maximum memory used throughout the entire STARTUP-calculation: 28.1 MB
Occupation numbers will be reassigned to an Aufbau configuration
             **** ENERGY FILE WAS UPDATED (3.en.tmp) ****
Finished Guess after   0.0 sec
Maximum memory used throughout the entire GUESS-calculation: 10.5 MB
----------------------------------------D-I-I-S--------------------------------------------
Iteration    Energy (Eh)           Delta-E    RMSDP     MaxDP     DIISErr   Damp  Time(sec)
-------------------------------------------------------------------------------------------
               ***  Starting incremental Fock matrix formation  ***
    1    -721.7048851253466637     0.00e+00  2.57e-04  4.84e-03  2.10e-02  0.700   0.3
    2    -721.7056743689083760    -7.89e-04  2.52e-04  4.53e-03  1.62e-02  0.700   0.3
                               ***Turning on AO-DIIS***
    3    -721.7062717124524625    -5.97e-04  2.03e-04  3.27e-03  1.18e-02  0.700   0.3
    4    -721.7066912648315338    -4.20e-04  5.15e-04  8.42e-03  8.40e-03  0.000   0.3
                              *** Initializing SOSCF ***
---------------------------------------S-O-S-C-F--------------------------------------
Iteration    Energy (Eh)           Delta-E    RMSDP     MaxDP     MaxGrad    Time(sec)
--------------------------------------------------------------------------------------
    5    -721.7076794489651093    -9.88e-04  4.42e-05  9.58e-04  8.33e-04     0.3
               *** Restarting incremental Fock matrix formation ***
    6    -721.7076813249884708    -1.88e-06  5.90e-05  1.78e-03  3.63e-04     0.3
    7    -721.7076755336272527     5.79e-06  3.85e-05  1.23e-03  1.15e-03     0.3
    8    -721.7076826722341139    -7.14e-06  1.97e-05  3.67e-04  8.04e-05     0.3
    9    -721.7076823014770071     3.71e-07  1.29e-05  2.70e-04  1.30e-04     0.3
   10    -721.7076828464082610    -5.45e-07  3.38e-06  8.34e-05  1.31e-05     0.3
   11    -721.7076828415147247     4.89e-09  1.93e-06  4.06e-05  1.61e-05     0.2
                 **** Energy Check signals convergence ****

               *****************************************************
               *                     SUCCESS                       *
               *           SCF CONVERGED AFTER  11 CYCLES          *
               *****************************************************

             **** ENERGY FILE WAS UPDATED (3.en.tmp) ****

----------------
TOTAL SCF ENERGY
----------------

Total Energy       :       -721.70768285450526 Eh          -19638.66446 eV

Components:
Nuclear Repulsion  :        381.05881716453018 Eh           10369.13757 eV
Electronic Energy  :      -1102.76650001903545 Eh          -30007.80203 eV
One Electron Energy:      -1748.34442519655749 Eh          -47574.87047 eV
[...]
  32   0.0000      -0.033425        -0.9095 
  33   0.0000       0.001613         0.0439 
  34   0.0000       0.033975         0.9245 
  35   0.0000       0.049032         1.3342 
  36   0.0000       0.070181         1.9097 
  37   0.0000       0.098005         2.6669 
  38   0.0000       0.122217         3.3257 
  39   0.0000       0.133410         3.6303 
  40   0.0000       0.148490         4.0406 
  41   0.0000       0.174316         4.7434 
  42   0.0000       0.180077         4.9002 
*Only the first 10 virtual orbitals were printed.

                    ********************************
                    * MULLIKEN POPULATION ANALYSIS *
                    ********************************

-----------------------
MULLIKEN ATOMIC CHARGES
-----------------------
   0 H :    0.139996
   1 C :   -0.338636
   2 H :    0.159737
   3 H :    0.079816
   4 O :   -0.463510
   5 C :   -0.050608
   6 H :    0.250142
   7 S :   -0.061281
   8 N :   -0.553314
   9 H :    0.250064
  10 C :    0.515853
  11 H :    0.163590
  12 O :   -0.415655
  13 H :    0.323807
Sum of atomic charges:   -0.0000000

--------------------------------
MULLIKEN REDUCED ORBITAL CHARGES
--------------------------------
  0 H s       :     0.848995  s :     0.848995
      pz      :     0.005835  p :     0.011009
      px      :     0.003300
      py      :     0.001875

  1 C s       :     3.315179  s :     3.315179
      pz      :     0.953832  p :     2.988195
      px      :     0.951196
      py      :     1.083167
      dz2     :     0.006123  d :     0.035262
      dxz     :     0.008956
      dyz     :     0.006153
      dx2y2   :     0.007767
      dxy     :     0.006263

  2 H s       :     0.828913  s :     0.828913
      pz      :     0.004125  p :     0.011350
      px      :     0.003576
      py      :     0.003649

  3 H s       :     0.904700  s :     0.904700
      pz      :     0.003041  p :     0.015484
      px      :     0.004200
      py      :     0.008243

  4 O s       :     3.841348  s :     3.841348
      pz      :     1.631585  p :     4.599204
      px      :     1.627872
      py      :     1.339746
      dz2     :     0.003505  d :     0.022958
      dxz     :     0.005058
      dyz     :     0.007109
      dx2y2   :     0.003585
      dxy     :     0.003700

  5 C s       :     3.208436  s :     3.208436
      pz      :     1.001941  p :     2.786429
      px      :     0.949675
      py      :     0.834813
      dz2     :     0.009375  d :     0.055743
      dxz     :     0.009333
      dyz     :     0.010924
      dx2y2   :     0.011232
      dxy     :     0.014880

  6 H s       :     0.726222  s :     0.726222
      pz      :     0.005591  p :     0.023635
      px      :     0.010680
      py      :     0.007365

  7 S s       :     5.859742  s :     5.859742
      pz      :     3.323585  p :    10.146712
      px      :     3.638869
      py      :     3.184258
      dz2     :     0.013616  d :     0.054826
      dxz     :     0.011679
      dyz     :     0.006787
      dx2y2   :     0.017241
      dxy     :     0.005504

  8 N s       :     3.612300  s :     3.612300
      pz      :     1.277129  p :     3.911725
      px      :     1.424006
      py      :     1.210590
      dz2     :     0.011531  d :     0.029288
      dxz     :     0.001163
      dyz     :     0.003104
      dx2y2   :     0.007253
      dxy     :     0.006238

  9 H s       :     0.726185  s :     0.726185
      pz      :     0.011682  p :     0.023751
      px      :     0.006940
      py      :     0.005129

 10 C s       :     2.999366  s :     2.999366
      pz      :     0.791699  p :     2.367261
      px      :     0.829104
      py      :     0.746457
      dz2     :     0.024412  d :     0.117520
      dxz     :     0.019813
      dyz     :     0.034860
      dx2y2   :     0.021238
      dxy     :     0.017198

 11 H s       :     0.824789  s :     0.824789
      pz      :     0.003011  p :     0.011622
      px      :     0.002495
      py      :     0.006116

 12 O s       :     3.871536  s :     3.871536
      pz      :     1.362531  p :     4.516490
      px      :     1.469588
      py      :     1.684371
      dz2     :     0.009497  d :     0.027629
      dxz     :     0.007091
      dyz     :     0.005952
      dx2y2   :     0.002376
      dxy     :     0.002713

 13 H s       :     0.638691  s :     0.638691
      pz      :     0.013414  p :     0.037502
      px      :     0.013720
      py      :     0.010369



                     *******************************
                     * LOEWDIN POPULATION ANALYSIS *
                     *******************************

----------------------
LOEWDIN ATOMIC CHARGES
----------------------
   0 H :    0.092480
   1 C :   -0.204365
   2 H :    0.088407
   3 H :    0.050437
   4 O :   -0.158760
   5 C :   -0.060285
   6 H :    0.133183
   7 S :   -0.007731
   8 N :   -0.253211
   9 H :    0.131200
  10 C :    0.127100
  11 H :    0.094582
  12 O :   -0.219210
  13 H :    0.186173

-------------------------------
LOEWDIN REDUCED ORBITAL CHARGES
-------------------------------
  0 H s       :     0.868574  s :     0.868574
      pz      :     0.022624  p :     0.038946
      px      :     0.010454
      py      :     0.005868

  1 C s       :     2.964238  s :     2.964238
      pz      :     1.032207  p :     3.163414
      px      :     1.028378
      py      :     1.102829
      dz2     :     0.013882  d :     0.076713
      dxz     :     0.020160
      dyz     :     0.011954
      dx2y2   :     0.016405
      dxy     :     0.014313

  2 H s       :     0.870518  s :     0.870518
      pz      :     0.016138  p :     0.041075
      px      :     0.012188
      py      :     0.012749

  3 H s       :     0.903208  s :     0.903208
      pz      :     0.007061  p :     0.046355
      px      :     0.010120
      py      :     0.029174

  4 O s       :     3.495445  s :     3.495445
      pz      :     1.631136  p :     4.614920
      px      :     1.609289
      py      :     1.374495
      dz2     :     0.005485  d :     0.048395
      dxz     :     0.007753
      dyz     :     0.015356
      dx2y2   :     0.010452
      dxy     :     0.009348

  5 C s       :     2.895823  s :     2.895823
      pz      :     1.043623  p :     3.038249
      px      :     1.031886
      py      :     0.962741
      dz2     :     0.019813  d :     0.126214
      dxz     :     0.020232
      dyz     :     0.025553
      dx2y2   :     0.025443
      dxy     :     0.035172

  6 H s       :     0.789363  s :     0.789363
      pz      :     0.014484  p :     0.077454
      px      :     0.040272
      py      :     0.022698

  7 S s       :     5.666142  s :     5.666142
      pz      :     3.377361  p :    10.281079
      px      :     3.644467
      py      :     3.259250
      dz2     :     0.014996  d :     0.060509
      dxz     :     0.014167
      dyz     :     0.007209
      dx2y2   :     0.018343
      dxy     :     0.005795

  8 N s       :     3.218979  s :     3.218979
      pz      :     1.294382  p :     3.977009
      px      :     1.422887
      py      :     1.259740
      dz2     :     0.020624  d :     0.057224
      dxz     :     0.002258
      dyz     :     0.007672
      dx2y2   :     0.014164
      dxy     :     0.012506

  9 H s       :     0.790217  s :     0.790217
      pz      :     0.044806  p :     0.078583
      px      :     0.019490
      py      :     0.014288

 10 C s       :     2.872887  s :     2.872887
      pz      :     0.954474  p :     2.721307
      px      :     0.879513
      py      :     0.887320
      dz2     :     0.054621  d :     0.278706
      dxz     :     0.046974
      dyz     :     0.087787
      dx2y2   :     0.050936
      dxy     :     0.038388

 11 H s       :     0.864301  s :     0.864301
      pz      :     0.009522  p :     0.041117
      px      :     0.007150
      py      :     0.024445

 12 O s       :     3.567632  s :     3.567632
      pz      :     1.438630  p :     4.595514
      px      :     1.478446
      py      :     1.678437
      dz2     :     0.017755  d :     0.056065
      dxz     :     0.016533
      dyz     :     0.012713
      dx2y2   :     0.004327
      dxy     :     0.004736

 13 H s       :     0.699739  s :     0.699739
      pz      :     0.041913  p :     0.114088
      px      :     0.042155
      py      :     0.030020



                      *****************************
                      * MAYER POPULATION ANALYSIS *
                      *****************************

  NA   - Mulliken gross atomic population
  ZA   - Total nuclear charge
  QA   - Mulliken gross atomic charge
  VA   - Mayer's total valence
  BVA  - Mayer's bonded valence
  FA   - Mayer's free valence

  ATOM       NA         ZA         QA         VA         BVA        FA
  0 H      0.8600     1.0000     0.1400     0.9456     0.9456    -0.0000
  1 C      6.3386     6.0000    -0.3386     3.8441     3.8441    -0.0000
  2 H      0.8403     1.0000     0.1597     0.9389     0.9389     0.0000
  3 H      0.9202     1.0000     0.0798     0.9732     0.9732    -0.0000
  4 O      8.4635     8.0000    -0.4635     2.0253     2.0253     0.0000
  5 C      6.0506     6.0000    -0.0506     3.8520     3.8520    -0.0000
  6 H      0.7499     1.0000     0.2501     0.9193     0.9193     0.0000
  7 S     16.0613    16.0000    -0.0613     2.0039     2.0039    -0.0000
  8 N      7.5533     7.0000    -0.5533     2.8973     2.8973    -0.0000
  9 H      0.7499     1.0000     0.2501     0.9312     0.9312    -0.0000
 10 C      5.4841     6.0000     0.5159     3.9194     3.9194    -0.0000
 11 H      0.8364     1.0000     0.1636     0.9469     0.9469     0.0000
 12 O      8.4157     8.0000    -0.4157     2.1187     2.1187    -0.0000
 13 H      0.6762     1.0000     0.3238     0.9133     0.9133     0.0000

  Mayer bond orders larger than 0.100000
B(  0-H ,  5-C ) :   0.9169 B(  1-C ,  2-H ) :   0.9347 B(  1-C ,  5-C ) :   0.9569 
B(  1-C ,  7-S ) :   1.0022 B(  1-C , 11-H ) :   0.9358 B(  3-H ,  7-S ) :   0.9478 
B(  4-O , 10-C ) :   1.0636 B(  4-O , 13-H ) :   0.8502 B(  5-C ,  8-N ) :   1.0565 
B(  5-C , 10-C ) :   0.8927 B(  6-H ,  8-N ) :   0.9037 B(  8-N ,  9-H ) :   0.8920 
B( 10-C , 12-O ) :   1.9208 

-------
TIMINGS
-------

Total SCF time: 0 days 0 hours 0 min 1 sec 

Total time                  ....       1.179 sec
Sum of individual times     ....       0.898 sec  ( 76.2%)

SCF preparation             ....       0.027 sec  (  2.3%)
Fock matrix formation       ....       0.855 sec  ( 72.6%)
  Startup                   ....       0.000 sec  (  0.0% of F)
  Split-RI-J                ....       0.308 sec  ( 36.0% of F)
  XC integration            ....       0.786 sec  ( 91.9% of F)
    Basis function eval.    ....       0.269 sec  ( 34.2% of XC)
    Density eval.           ....       0.162 sec  ( 20.6% of XC)
    XC-Functional eval.     ....       0.162 sec  ( 20.6% of XC)
    XC-Potential eval.      ....       0.175 sec  ( 22.3% of XC)
Diagonalization             ....       0.000 sec  (  0.0%)
Density matrix formation    ....       0.001 sec  (  0.0%)
Total Energy calculation    ....       0.000 sec  (  0.0%)
Population analysis         ....       0.009 sec  (  0.7%)
Orbital Transformation      ....       0.001 sec  (  0.1%)
Orbital Orthonormalization  ....       0.000 sec  (  0.0%)
DIIS solution               ....       0.002 sec  (  0.1%)
SOSCF solution              ....       0.003 sec  (  0.3%)
Finished LeanSCF after   1.2 sec

Maximum memory used throughout the entire LEANSCF-calculation: 15.4 MB



-------------------------------------------------------------------------------
                          DFT DISPERSION CORRECTION                            
-------------------------------------------------------------------------------
Active option DFTDOPT                   ...         2   
Final C6-coefficient scaling factor     ...     1.250
Final VDW-radii scaling factor          ...     1.100
Damping factor alpha                    ...    20.000
-------------------------   ----------------
Dispersion correction           -0.017149367
-------------------------   ----------------


-------------------------   --------------------
FINAL SINGLE POINT ENERGY      -721.725259281222
-------------------------   --------------------

                                *** OPTIMIZATION RUN DONE ***


------------------------------------------------------------------------------
                              ORCA PROPERTY CALCULATIONS
------------------------------------------------------------------------------

GBWName                                 ... 3.gbw
Number of atoms                         ...     14
Number of basis functions               ...    137
Max core memory                         ...   4096 MB

Electric properties:
Dipole moment                           ... YES
Quadrupole moment                       ...  NO
Static polarizability (Dipole/Dipole)   ...  NO
Static polarizability (Dipole/Quad.)    ...  NO
Static polarizability (Quad./Quad.)     ...  NO
Static polarizability (Velocity)        ...  NO
Static hyperpolarizability              ...  NO

Atomic electric properties:
Dipole moment                           ...  NO
Quadrupole moment                       ...  NO
Static polarizability                   ...  NO

Choice of electric origin               ... Center of mass
Position of electric origin             ...    -3.555776     2.427920     0.026467

General magnetic properties:
Magnetizability                         ...  NO

EPR properties:
g-Tensor (aka g-matrix)                 ...  NO
Zero-Field splitting spin-orbit         ...  NO
Zero-field splitting spin-spin          ...  NO
Hyperfine couplings                     ...  NO (   0 nuclei)
Quadrupole couplings                    ...  NO (   0 nuclei)
Contact density                         ...  NO (   0 nuclei)

NMR properties:
Chemical shifts                         ...  NO (   0 nuclei)
Spin-rotation constants                 ...  NO (   0 nuclei)
Spin-spin couplings                     ...  NO (   0 nuclei,    0 pairs)

Choice of magnetic origin               ... GIAO
Position of magnetic origin             ...     0.000000     0.000000     0.000000

Properties with geometric perturbations:
SCF Hessian                             ...  NO
IR spectrum                             ...  NO
VCD spectrum                            ...  NO
X-ray spectroscopy properties:
SCF XES/XAS/RIXS spectra                ...  NO

SCF SOC stabilization energy            ...  NO
Diagonal Born-Oppenheimer correction    ...  NO

-------------
DIPOLE MOMENT
-------------

Method             : SCF
Type of density    : Electron Density
Multiplicity       :   1
Irrep              :   0
Energy             :  -721.7081099146765837 Eh
Basis              : AO
                                X                 Y                 Z
Electronic contribution:      0.974376215      -3.178608202      -2.776422246
Nuclear contribution   :     -0.522090526       3.118516252       3.342324624
                        -----------------------------------------
Total Dipole Moment    :      0.452285689      -0.060091950       0.565902378
                        -----------------------------------------
Magnitude (a.u.)       :      0.726924266
Magnitude (Debye)      :      1.847694645



--------------------
Rotational spectrum 
--------------------
 
Rotational constants in cm-1:             0.096110             0.050981             0.043920 
Rotational constants in MHz :          2881.301397          1528.361112          1316.679230 

Dipole components along the rotational axes: 
x,y,z [a.u.] :     0.454562     0.004317     0.567251 
x,y,z [Debye]:     1.155404     0.010973     1.441838 

 

Dipole moment calculation done in   0.0 sec 

Maximum memory used throughout the entire PROP-calculation: 8.8 MB

--------------------------------
SUGGESTED CITATIONS FOR THIS RUN
--------------------------------

Below you find a list of papers that are relevant to this ORCA run
We neither can nor want to force you to cite these papers, but we appreciate if you do
You receive ORCA, which is the product of decades of hard work by many enthusiastic individuals, for free
The only thing we kindly ask in return is that you cite our papers,
We deeply appreciate it, if you show your appreciation for ORCA by not just citing the generic ORCA reference.

Please note that relegating all ORCA citations to the supporting information does *not* help us.
SI sections are not indexed - citations you put there will not count into any citation statistics
But we need these citations in order to attract the funding resources that allow us to do what we are doing

Therefore, if you are a happy ORCA user, please consider citing a few of the papers listed below in the main body of your paper

In addition to the list printed below, the program has created the file 3.bibtex that contains the list in bibtex format
You can import this file easily into all common literature databanks and citation aid programs


List of essential papers. We consider these as the minimum necessary citations

  1. Neese, F.
     Software update: the ORCA program system, version 6.0
     WIRES Comput. Molec. Sci. 2025 15(1), e70019
     doi.org/10.1002/wcms.7019

List of papers to cite with high priority. The work reported in these papers was absolutely
necessary for this run to complete.
Our perspective: the developers of density functionals and basis sets usually get cited in chemistry papers
Good! But without the algorithms to do something with them, the functionals or basis sets would not do anything.
Hence, in our opinion, the algorithm design and method developments papers are equally worthy of getting cited

  1. Neese, F.
     An improvement of the resolution of the identity approximation for the formation of the Coulomb matrix
     J. Comp. Chem. 2003 24(14), 1740-1747
     doi.org/10.1002/jcc.10318
  2. Grimme, S.
     Semiempirical GGA-type density functional constructed with a long-range dispersion correction
     J.Comput.Chem. 2006 27(15), 1787-1799
     doi.org/10.1002/jcc.20495
  3. Neese, F.
     The SHARK Integral Generation and Digestion System
     J. Comp. Chem. 2022 44(3), 381
     doi.org/10.1002/jcc.26942

List of suggested additional citations. These are papers that are important in the 'surrounding' of 
of this run, or papers that preceded the highly important papers. If you like your results we are grateful for a citation.

  1. Neese, F.
     The ORCA program system
     WIRES Comput. Molec. Sci. 2012 2(1), 73-78
     doi.org/10.1002/wcms.81
  2. Neese, F.
     Software update: the ORCA program system, version 4.0
     WIRES Comput. Molec. Sci. 2018 8(1), 1-6
     doi.org/10.1002/wcms.1327
  3. Neese, F.; Wennmohs, F.; Becker, U.; Riplinger, C.
     The ORCA quantum chemistry program package
     J. Chem. Phys. 2020 152(22), 224108
     doi.org/10.1063/5.0004608
  4. Neese, F.
     Software update: The ORCA program system—Version 5.0
     WIRES Comput. Molec. Sci. 2022 12(1), e1606
     doi.org/10.1002/wcms.1606

List of optional additional citations

  1. Neese, F.
     Approximate second-order SCF convergence for spin unrestricted wavefunctions
     Chem. Phys. Lett. 2000 325(1-3), 93-98
     doi.org/10.1016/s0009-2614(00)00662-x

Timings for individual modules:

Sum of individual times          ...       57.315 sec (=   0.955 min)
Startup calculation              ...        3.662 sec (=   0.061 min)   6.4 %
SCF iterations                   ...       33.368 sec (=   0.556 min)  58.2 %
Property calculations            ...        0.040 sec (=   0.001 min)   0.1 %
SCF Gradient evaluation          ...       20.223 sec (=   0.337 min)  35.3 %
Geometry relaxation              ...        0.022 sec (=   0.000 min)   0.0 %
                             ****ORCA TERMINATED NORMALLY****
TOTAL RUN TIME: 0 days 0 hours 0 minutes 57 seconds 564 msec
