
                                 *****************
                                 * O   R   C   A *
                                 *****************

                                            #,                                       
                                            ###                                      
                                            ####                                     
                                            #####                                    
                                            ######                                   
                                           ########,                                 
                                     ,,################,,,,,                         
                               ,,#################################,,                 
                          ,,##########################################,,             
                       ,#########################################, ''#####,          
                    ,#############################################,,   '####,        
                  ,##################################################,,,,####,       
                ,###########''''           ''''###############################       
              ,#####''   ,,,,##########,,,,          '''####'''          '####       
            ,##' ,,,,###########################,,,                        '##       
           ' ,,###''''                  '''############,,,                           
         ,,##''                                '''############,,,,        ,,,,,,###''
      ,#''                                            '''#######################'''  
     '                                                          ''''####''''         
             ,#######,   #######,   ,#######,      ##                                
            ,#'     '#,  ##    ##  ,#'     '#,    #''#        ,####,    ,#,          
            ##       ##  ##   ,#'  ##            #'  '#       #'       ,# #          
            ##       ##  #######   ##           ,######,      #####,      #          
            '#,     ,#'  ##    ##  '#,     ,#' ,#      #,     #,   #      #          
             '#######'   ##     ##  '#######'  #'      '#     '####' #    #          



                #########################################################
                #                        -***-                          #
                #          Department of theory and spectroscopy        #
                #                                                       #
                #                      Frank Neese                      #
                #                                                       #
                #     Directorship, Architecture, Infrastructure        #
                #                    SHARK, DRIVERS                     #
                #        Core code/Algorithms in most modules           #
                #                                                       #
                #        Max Planck Institute fuer Kohlenforschung      #
                #                Kaiser Wilhelm Platz 1                 #
                #                 D-45470 Muelheim/Ruhr                 #
                #                      Germany                          #
                #                                                       #
                #                  All rights reserved                  #
                #                        -***-                          #
                #########################################################


                         Program Version 6.1.0  -  RELEASE   -
                                (GIT: $679e74b$)
                          ($2025-06-10 18:02:51 +0200$)


 With contributions from (in alphabetic order):
[Max-Planck-Institut fuer Kohlenforschung]                               
  Daniel Aravena         : Magnetic Suceptibility                        
  Michael Atanasov       : Ab Initio Ligand Field Theory (pilot matlab implementation)
  Alexander A. Auer      : GIAO ZORA, VPT2 properties, NMR spectrum      
  Ute Becker             : All parallelization in ORCA, NUMFREQ, NUMCALC 
  Giovanni Bistoni       : ED, misc. LED, open-shell LED, HFLD           
  Dmytro Bykov           : pre 5.0 version of the SCF Hessian            
  Marcos Casanova-Páez   : Triplet and SCS-CIS(D). UHF-(DLPNO)-IP/EA/STEOM-CCSD. UHF-CVS-IP/STEOM-CCSD   
  Vijay G. Chilkuri      : MRCI spin determinant printing, contributions to CSF-ICE 
  Pauline Colinet        : FMM embedding                                 
  Dipayan Datta          : RHF DLPNO-CCSD density                        
  Achintya Kumar Dutta   : EOM-CC, STEOM-CC                              
  Nicolas Foglia         : Exact transition moments, OPA infrastructure, MCD improvements    
  Dmitry Ganyushin       : Spin-Orbit,Spin-Spin,Magnetic field MRCI      
  Miquel Garcia-Rates    : C-PCM and meta-GGA Hessian, CCSD/C-PCM, Gaussian charge scheme 
  Tiago L. C. Gouveia    : GS-ROHF, GS-ROCIS                             
  Yang Guo               : DLPNO-NEVPT2, F12-NEVPT2, CIM, IAO-localization        
  Andreas Hansen         : Spin unrestricted coupled pair/coupled cluster methods 
  Ingolf Harden          : AUTO-CI MPn and infrastructure                
  Benjamin Helmich-Paris : MC-RPA, TRAH-(SCF,CASSCF), AVAS, COSX integrals, SCF dyn. polar., MC-PDFT, srDFT 
  Lee Huntington         : MR-EOM, pCC                                   
  Robert Izsak           : Overlap fitted RIJCOSX, COSX-SCS-MP3, EOM     
  Riya Kayal             : Wick's Theorem for AUTO-CI, AUTO-CI UHF-CCSDT 
  Emily Kempfer          : AUTO-CI RHF CISDT and CCSDT, approximate NEVPT4
  Christian Kollmar      : KDIIS, OOCD, Brueckner-CCSD(T), CCSD density, CASPT2, CASPT2-K, improved NEVPT2 
  Axel Koslowski         : Symmetry handling                             
  Simone Kossmann        : meta-GGA functionals, TD-DFT gradient, OOMP2, (MP2 Hessian; deprecated post 5.0) 
  Lucas Lang             : DCDCAS, Hyperfine gauge corrections, ICE-SOC+SSC
  Marvin Lechner         : AUTO-CI (C++ implementation), FIC-MRCC        
  Spencer Leger          : CASSCF response                               
  Dagmar Lenk            : GEPOL surface, SMD, ORCA-2-JSON               
  Dimitrios Liakos       : Extrapolation schemes; Compound Job, Property file
  Dimitrios Manganas     : Further ROCIS development; embedding schemes. LFT, Crystal Embedding 
  Dimitrios Pantazis     : SARC Basis sets                               
  Anastasios Papadopoulos: AUTO-CI, single reference methods and gradients 
  Taras Petrenko         : pre 6.0 DFT Hessian and TD-DFT gradient,  ECA, NRVS 
  Petra Pikulova         : Analytic Raman intensities                    
  Peter Pinski           : DLPNO-MP2, DLPNO-MP2 Gradient                 
  Shashank Vittal Rao    : ES-AILFT, MagRelax                            
  Christoph Reimann      : Effective Core Potentials                     
  Marius Retegan         : Local ZFS, SOC                                
  Christoph Riplinger    : Optimizer, TS searches, QM/MM, DLPNO-CCSD(T), (RO)-DLPNO pert. Triples 
  Michael Roemelt        : Original ROCIS implementation, recursive CI coupling coefficients
  Masaaki Saitow         : Open-shell DLPNO-CCSD energy and density      
  Barbara Sandhoefer     : DKH picture change effects                    
  Yorick L. A. Schmerwitz: GMF and freeze-and-release deltaSCF, NEB S-IDPP initial path                    
  Kantharuban Sivalingam : CASSCF convergence/infrastructure, NEVPT2, NEVPT3, NEVPT4(SD), FIC-MRCI and CEPA variants
  Bernardo de Souza      : ESD, SOC TD-DFT                               
  Georgi L. Stoychev     : AutoAux, RI-MP2 NMR, DLPNO-MP2 response, X2C  
  Van Anh Tran           : RI-MP2 g-tensors                              
  Willem Van den Heuvel  : Paramagnetic NMR                              
  Zikuan Wang            : NOTCH, Electric field optimization            
  Frank Wennmohs         : Technical directorship and infrastructure     
  Hang Xu                : AUTO-CI-Response properties                   
                                                                         
[FACCTs GmbH]                                                            
  Markus Bursch, Nicolas Foglia, Miquel Garcia-Rates, Ingolf Harden, Hagen Neugebauer, Anastasios Papadopoulos, 
  Christoph Riplinger, Bernardo de Souza, Georgi L. Stoychev                                                    
                                                                 
  APM, various basis sets, CI-OPT, improved COSX, DLPNO-Multilevel,           
  DOCKER, DRACO, updates on ESD, Fragmentator, GOAT, IRC, LR-CPCM, L-BFGS, MBIS, meta-GGA TD-DFT gradient, ML-optimized integration grids, 
  MM, NACMEs, nearIR, NEB, NEB-TS, NL-DFT gradient (VV10), 2- and 3-layer-ONIOM, interface openCOSMO-RS, QMMM,   
  Crystal-QMMM, RESP, rigid body optimization, SF, symmetry and pop. for TD-DFT, various functionals, SOLVATOR                                   
                                                                         
[Other institutions]                                                     
  V. Asgeirsson          : NEB                                           
  Christoph Bannwarth    : sTDA-DFT, sTD-DFT, PBEh-3c, B97-3c, D3        
  Giovanni Bistoni       : ETS/NOCV, ADLD/ADEX, COVALED                  
  Martin Brehm           : Molecular dynamics                            
  Ronald Cardenas        : ETS/NOCV                                      
  Martina Colucci        : COVALED                                       
  Sebastian Ehlert       : rSCAN, r2SCAN, r2SCAN-3c, D4, dhf basis sets  
  Marvin Friede          : D4 for Fr, Ra, Ac-Lr                          
  Lars Goerigk           : TD-DFT with DH, B97 family of functionals     
  Stefan Grimme          : VdW corrections, initial TS optimization, DFT functionals, gCP, sTDA/sTD-DF 
  Waldemar Hujo          : DFT-NL                                        
  H. Jonsson             : NEB                                           
  Holger Kruse           : gCP                                           
  Marcel Mueller         : wB97X-3c, vDZP basis set                      
  Hagen Neugebauer       : wr2SCAN, Native XTB                           
  Gianluca Regni         : ADLD/ADEX                                     
  Tobias Risthaus        : pre 6.0 range-separated hybrid DFT and stability analysis
  Lukas Wittmann         : regularized MP2, r2SCAN double-hybrids, wr2SCAN        
                                                                         
We gratefully acknowledge several colleagues who have allowed us to      
interface, adapt or use parts of their codes:                            
  Ed Valeev, F. Pavosevic, A. Kumar             : LibInt (2-el integral package), F12 methods 
  Garnet Chan, S. Sharma, J. Yang, R. Olivares  : DMRG                   
  Ulf Ekstrom                                   : XCFun DFT Library      
  Mihaly Kallay                                 : mrcc  (arbitrary order and MRCC methods)
  Frank Weinhold                                : gennbo (NPA and NBO analysis)           
  Simon Mueller                                 : openCOSMO-RS                            
  Christopher J. Cramer and Donald G. Truhlar   : smd solvation model                     
  S Lehtola, MJT Oliveira, MAL Marques          : LibXC Library                           
  Liviu Ungur et al                             : ANISO software                          


 Your calculation uses the libint2 library for the computation of 2-el integrals
 For citations please refer to: http://libint.valeyev.net

 Your ORCA version has been built with support for libXC version: 7.0.0
 For citations please refer to: https://libxc.gitlab.io

 This ORCA versions uses:
   CBLAS   interface :  Fast vector & matrix operations
   LAPACKE interface :  Fast linear algebra routines
   SCALAPACK package :  Parallel linear algebra routines
   Shared memory     :  Shared parallel matrices
   BLAS/LAPACK       :  OpenBLAS 0.3.29  USE64BITINT DYNAMIC_ARCH NO_AFFINITY Haswell SINGLE_THREADED
        Core in use  :  Haswell
   Copyright (c) 2011-2014, The OpenBLAS Project


  ***********************************
  * Starting time: Sun Aug 31 18:46:02 2025
  * Host name:     chemlab03
  * Process ID:    94734
  * Working dir.:  /home/vivek/mm-project/vivek/xtb-goat/MP2-opt/f/0
  ***********************************



***************************************
The coordinates will be read from file: /home/vivek/mm-project/vivek/xtb-goat/xtb-goat/f/F_CONF/0.xyz
***************************************


================================================================================

----- Orbital basis set information -----
Your calculation utilizes the basis: 6-31G**
   H-He, Li-Ne : W. J. Hehre, R. Ditchfield and J.A. Pople, J. Chem. Phys. 56, 2257 (1972).
                 Note: He and Ne are unpublished basis sets taken from the Gaussian program.
                 Note: Li and B from J. D. Dill and J. A. Pople, J. Chem. Phys. 62, 2921 (1975).
   Na - Ar     : M. M. Francl, W. J. Pietro, W. J. Hehre, J. S. Binkley, M. S. Gordon, 
                 D. J. DeFrees and J. A. Pople, J. Chem. Phys. 77, 3654 (1982).
   K - Zn      : V. A. Rassolov, J. A. Pople, M. A. Ratner, and T. L. Windus, J. Chem. Phys. 109, 1223 (1998).

================================================================================
                                        WARNINGS
                       Please study these warnings very carefully!
================================================================================


WARNING: The frozen-core approximation for MP2-gradient calculations is turned on by default.

WARNING: Geometry Optimization
  ===> : Switching off AutoStart
         For restart on a previous wavefunction, please use MOREAD

WARNING: Post HF methods need fully converged wavefunctions
  ===> : Setting SCFConvForced true
         You can overwrite this default with %scf ConvForced false 


================================================================================
                                       INPUT FILE
================================================================================
NAME = 0.inp
|  1> ! MP2 6-31G** opt
|  2> 
|  3> * xyzfile 0 1 /home/vivek/mm-project/vivek/xtb-goat/xtb-goat/f/F_CONF/0.xyz
|  4> 
|  5>                          ****END OF INPUT****
================================================================================

                       *****************************
                       * Geometry Optimization Run *
                       *****************************

Geometry optimization settings:
Update method            Update   .... BFGS
Choice of coordinates    CoordSys .... (2022) Redundant Internals
Initial Hessian          InHess   .... Almloef's Model
Max. no of cycles        MaxIter  .... 69

Convergence Tolerances:
Energy Change            TolE     ....  5.0000e-06 Eh
Max. Gradient            TolMAXG  ....  3.0000e-04 Eh/bohr
RMS Gradient             TolRMSG  ....  1.0000e-04 Eh/bohr
Max. Displacement        TolMAXD  ....  4.0000e-03 bohr
RMS Displacement         TolRMSD  ....  2.0000e-03 bohr
Strict Convergence                .... False

------------------------------------------------------------------------------
                        ORCA OPTIMIZATION COORDINATE SETUP
------------------------------------------------------------------------------

The optimization will be done in redundant internal coordinates (2022)
Making redundant internal coordinates   ...  (2022 redundants) done
Evaluating the initial hessian          ...  (Almloef) done
Evaluating the coordinates              ...  done
Calculating the B-matrix                .... done
Calculating the G-matrix                .... done
The number of degrees of freedom        ....  107

    -----------------------------------------------------------------
                    Redundant Internal Coordinates


    -----------------------------------------------------------------
         Definition                    Initial Value    Approx d2E/dq
    -----------------------------------------------------------------
      1. B(C   1,C   0)                  1.3841         0.638454   
      2. B(H   4,C   2)                  1.0812         0.371952   
      3. B(C   5,C   1)                  1.3839         0.638898   
      4. B(H   7,C   1)                  1.0803         0.373150   
      5. B(C   8,C   5)                  1.3896         0.625780   
      6. B(C   8,C   6)                  1.5028         0.412863   
      7. B(C   8,C   2)                  1.3894         0.626161   
      8. B(H   9,C   0)                  1.0800         0.373639   
      9. B(C  10,H   3)                  1.0803         0.373101   
     10. B(C  10,C   2)                  1.3833         0.640378   
     11. B(C  10,C   0)                  1.3843         0.637932   
     12. B(H  11,C   5)                  1.0805         0.372941   
     13. B(C  12,C   6)                  1.5456         0.352715   
     14. B(H  13,C   6)                  1.0903         0.359768   
     15. B(H  14,C   6)                  1.0906         0.359355   
     16. B(C  15,C  12)                  1.5249         0.380705   
     17. B(N  17,C  12)                  1.4471         0.453657   
     18. B(O  18,H  16)                  0.9709         0.499484   
     19. B(O  18,C  15)                  1.3376         0.678426   
     20. B(H  19,N  17)                  1.0148         0.425203   
     21. B(O  20,C  15)                  1.2023         1.115107   
     22. B(H  21,C  12)                  1.0967         0.351309   
     23. B(H  22,N  17)                  1.0163         0.422801   
     24. A(C   1,C   0,C  10)          119.6778         0.438613   
     25. A(C   1,C   0,H   9)          120.1932         0.356895   
     26. A(H   9,C   0,C  10)          120.1285         0.356846   
     27. A(C   0,C   1,C   5)          120.1458         0.438733   
     28. A(C   0,C   1,H   7)          120.0417         0.356816   
     29. A(C   5,C   1,H   7)          119.8125         0.356858   
     30. A(C   8,C   2,C  10)          120.6666         0.437380   
     31. A(H   4,C   2,C   8)          119.5407         0.355446   
     32. A(H   4,C   2,C  10)          119.7913         0.356803   
     33. A(C   1,C   5,C   8)          120.5980         0.437149   
     34. A(C   8,C   5,H  11)          119.3871         0.355569   
     35. A(C   1,C   5,H  11)          120.0146         0.356824   
     36. A(C  12,C   6,H  14)          108.4053         0.321169   
     37. A(H  13,C   6,H  14)          109.3233         0.290703   
     38. A(C   8,C   6,H  14)          110.2828         0.329593   
     39. A(C  12,C   6,H  13)          107.2087         0.321230   
     40. A(C   8,C   6,H  13)          110.3246         0.329655   
     41. A(C   8,C   6,C  12)          111.2149         0.366006   
     42. A(C   5,C   8,C   6)          120.5973         0.404389   
     43. A(C   2,C   8,C   6)          120.5725         0.404432   
     44. A(C   2,C   8,C   5)          118.8007         0.435566   
     45. A(C   0,C  10,H   3)          120.0423         0.356758   
     46. A(C   0,C  10,C   2)          120.1062         0.438852   
     47. A(C   2,C  10,H   3)          119.8515         0.356991   
     48. A(C  15,C  12,N  17)          112.4660         0.374541   
     49. A(C   6,C  12,N  17)          110.3708         0.369648   
     50. A(C   6,C  12,C  15)          109.3415         0.360968   
     51. A(N  17,C  12,H  21)          108.4710         0.331510   
     52. A(C  15,C  12,H  21)          107.7155         0.324010   
     53. A(C   6,C  12,H  21)          108.3543         0.319983   
     54. A(C  12,C  15,O  20)          124.3860         0.439005   
     55. A(C  12,C  15,O  18)          112.7769         0.401771   
     56. A(O  18,C  15,O  20)          122.8308         0.484619   
     57. A(C  12,N  17,H  19)          110.1459         0.339268   
     58. A(H  19,N  17,H  22)          106.8084         0.301295   
     59. A(C  12,N  17,H  22)          109.1814         0.338947   
     60. A(C  15,O  18,H  16)          110.2804         0.373308   
     61. D(C   5,C   1,C   0,C  10)      0.4271         0.028312   
     62. D(C   5,C   1,C   0,H   9)   -179.8316         0.028312   
     63. D(H   7,C   1,C   0,H   9)      0.1474         0.028312   
     64. D(H   7,C   1,C   0,C  10)   -179.5939         0.028312   
     65. D(H  11,C   5,C   1,H   7)      0.3954         0.028354   
     66. D(H  11,C   5,C   1,C   0)   -179.6255         0.028354   
     67. D(C   8,C   5,C   1,C   0)      0.1681         0.028354   
     68. D(C   8,C   5,C   1,H   7)   -179.8109         0.028354   
     69. D(C   6,C   8,C   5,C   1)    177.3493         0.027129   
     70. D(C   6,C   8,C   2,C  10)   -177.4164         0.027164   
     71. D(C   2,C   8,C   5,C   1)     -0.6865         0.027129   
     72. D(C   2,C   8,C   5,H  11)    179.1084         0.027129   
     73. D(C   5,C   8,C   6,C  12)    -86.9333         0.012618   
     74. D(C   5,C   8,C   2,C  10)      0.6200         0.027164   
     75. D(C   5,C   8,C   2,H   4)   -178.9386         0.027164   
     76. D(C   2,C   8,C   6,H  13)   -150.1025         0.012618   
     77. D(C   2,C   8,C   6,C  12)     91.0676         0.012618   
     78. D(C   2,C   8,C   6,H  14)    -29.2331         0.012618   
     79. D(C   6,C   8,C   5,H  11)     -2.8558         0.027129   
     80. D(C   6,C   8,C   2,H   4)      3.0251         0.027164   
     81. D(C   5,C   8,C   6,H  13)     31.8966         0.012618   
     82. D(H   3,C  10,C   2,C   8)    179.9617         0.028494   
     83. D(H   3,C  10,C   2,H   4)     -0.4808         0.028494   
     84. D(C   0,C  10,C   2,C   8)     -0.0343         0.028494   
     85. D(C   0,C  10,C   2,H   4)    179.5231         0.028494   
     86. D(H   3,C  10,C   0,H   9)     -0.2310         0.028263   
     87. D(H   3,C  10,C   0,C   1)    179.5104         0.028263   
     88. D(C   2,C  10,C   0,H   9)    179.7650         0.028263   
     89. D(C   2,C  10,C   0,C   1)     -0.4936         0.028263   
     90. D(C  15,C  12,C   6,H  13)   -176.0212         0.010011   
     91. D(C  15,C  12,C   6,C   8)    -55.3391         0.010011   
     92. D(N  17,C  12,C   6,H  14)   -169.7168         0.010011   
     93. D(N  17,C  12,C   6,H  13)    -51.8030         0.010011   
     94. D(N  17,C  12,C   6,C   8)     68.8791         0.010011   
     95. D(C  15,C  12,C   6,H  14)     66.0650         0.010011   
     96. D(O  20,C  15,C  12,N  17)     -8.8126         0.010813   
     97. D(O  20,C  15,C  12,C   6)    114.1685         0.010813   
     98. D(O  18,C  15,C  12,H  21)     50.8177         0.010813   
     99. D(O  18,C  15,C  12,N  17)    170.2902         0.010813   
    100. D(O  18,C  15,C  12,C   6)    -66.7287         0.010813   
    101. D(H  22,N  17,C  12,C  15)     58.0378         0.017560   
    102. D(H  22,N  17,C  12,C   6)    -64.3641         0.017560   
    103. D(H  19,N  17,C  12,H  21)     60.0856         0.017560   
    104. D(H  19,N  17,C  12,C  15)    -58.9462         0.017560   
    105. D(H  19,N  17,C  12,C   6)    178.6519         0.017560   
    106. D(H  16,O  18,C  15,O  20)     -1.2779         0.034267   
    107. D(H  16,O  18,C  15,C  12)    179.6033         0.034267   
    -----------------------------------------------------------------

Number of atoms                         .... 23
Number of degrees of freedom            .... 107


         *************************************************************
         *                GEOMETRY OPTIMIZATION CYCLE   1            *
         *************************************************************
---------------------------------
CARTESIAN COORDINATES (ANGSTROEM)
---------------------------------
  C     -5.926133    0.082876   -0.942525
  C     -5.228445    0.880172   -1.833211
  C     -4.924124    1.267430    0.886079
  H     -6.323471   -0.331242    1.119425
  H     -4.816370    1.424034    1.950422
  C     -4.377905    1.866115   -1.364442
  C     -3.242895    3.096312    0.509973
  H     -5.346449    0.733883   -2.897046
  C     -4.210849    2.065844    0.000516
  H     -6.587983   -0.688529   -1.307472
  C     -5.775706    0.282435    0.419068
  H     -3.838940    2.491284   -2.061636
  C     -1.819587    2.508751    0.644028
  H     -3.181747    3.934495   -0.184547
  H     -3.558600    3.460544    1.488234
  C     -1.866507    1.268756    1.530248
  H     -2.208304    0.737054    3.328195
  N     -1.263064    2.233498   -0.663147
  O     -2.182637    1.550686    2.798991
  H     -0.320513    1.868767   -0.571976
  O     -1.630851    0.152861    1.149717
  H     -1.184930    3.251399    1.142523
  H     -1.815492    1.510415   -1.115749

----------------------------
CARTESIAN COORDINATES (A.U.)
----------------------------
  NO LB      ZA    FRAG     MASS         X           Y           Z
   0 C     6.0000    0    12.011  -11.198768    0.156613   -1.781113
   1 C     6.0000    0    12.011   -9.880330    1.663284   -3.464267
   2 C     6.0000    0    12.011   -9.305246    2.395095    1.674447
   3 H     1.0000    0     1.008  -11.949628   -0.625956    2.115407
   4 H     1.0000    0     1.008   -9.101620    2.691035    3.685763
   5 C     6.0000    0    12.011   -8.273041    3.526446   -2.578422
   6 C     6.0000    0    12.011   -6.128184    5.851182    0.963709
   7 H     1.0000    0     1.008  -10.103324    1.386837   -5.474623
   8 C     6.0000    0    12.011   -7.957352    3.903880    0.000975
   9 H     1.0000    0     1.008  -12.449484   -1.301131   -2.470764
  10 C     6.0000    0    12.011  -10.914502    0.533726    0.791924
  11 H     1.0000    0     1.008   -7.254545    4.707844   -3.895928
  12 C     6.0000    0    12.011   -3.438521    4.740853    1.217036
  13 H     1.0000    0     1.008   -6.012630    7.435118   -0.348744
  14 H     1.0000    0     1.008   -6.724779    6.539481    2.812355
  15 C     6.0000    0    12.011   -3.527187    2.397601    2.891750
  16 H     1.0000    0     1.008   -4.173090    1.392830    6.289377
  17 N     7.0000    0    14.007   -2.386846    4.220700   -1.253166
  18 O     8.0000    0    15.999   -4.124586    2.930372    5.289326
  19 H     1.0000    0     1.008   -0.605682    3.531459   -1.080877
  20 O     8.0000    0    15.999   -3.081862    0.288865    2.172651
  21 H     1.0000    0     1.008   -2.239193    6.144254    2.159055
  22 H     1.0000    0     1.008   -3.430783    2.854270   -2.108460

--------------------------------
INTERNAL COORDINATES (ANGSTROEM)
--------------------------------
 C      0   0   0     0.000000000000     0.00000000     0.00000000
 C      1   0   0     1.384113822328     0.00000000     0.00000000
 C      1   2   0     2.398120383742    89.74426149     0.00000000
 H      3   1   2     2.137374630626    55.96051957   179.57327231
 H      3   1   2     1.081184797431   149.74893529   178.74968866
 C      2   1   3     1.383924592279   120.14582313     0.18082885
 C      3   1   2     2.512528382837   121.66779278   357.98911421
 H      2   1   3     1.080309946708   120.04170706   180.15981529
 C      3   1   2     1.389406232590    90.70724187   359.54167949
 H      1   2   3     1.079952870455   120.19317808   179.98753938
 C      4   3   1     1.080345225910    34.14732592     0.00000000
 H      6   2   1     1.080462322625   120.01461223   180.37446838
 C      7   3   1     1.545640877650   109.05580335   263.45333405
 H      7   3   1     1.090251358394   133.82832632    43.40012297
 H      7   3   1     1.090563499236    85.13115890   155.64531538
 C     13   7   3     1.524853304241   109.34152717   334.90156378
 H     16  13   7     1.905818764080   141.32266172   293.57465353
 N     13   7   3     1.447130588854   110.37081276    99.11980524
 O     17  16  13     0.970934522684    41.17286518   359.41471659
 H     18  13   7     1.014762889748   110.14594127   178.65188048
 O     16  13   7     1.202314097151   124.38599072   114.16851023
 H     13   7   3     1.096727854435   108.35425629   217.75734963
 H     18  13   7     1.016304783101   109.18144364   295.63592052

---------------------------
INTERNAL COORDINATES (A.U.)
---------------------------
 C      0   0   0     0.000000000000     0.00000000     0.00000000
 C      1   0   0     2.615596062375     0.00000000     0.00000000
 C      1   2   0     4.531790761446    89.74426149     0.00000000
 H      3   1   2     4.039052697473    55.96051957   179.57327231
 H      3   1   2     2.043143167304   149.74893529   178.74968866
 C      2   1   3     2.615238469406   120.14582313     0.18082885
 C      3   1   2     4.747990547266   121.66779278   357.98911421
 H      2   1   3     2.041489939030   120.04170706   180.15981529
 C      3   1   2     2.625597268359    90.70724187   359.54167949
 H      1   2   3     2.040815162702   120.19317808   179.98753938
 C      4   3   1     2.041556607059    34.14732592     0.00000000
 H      6   2   1     2.041777887782   120.01461223   180.37446838
 C      7   3   1     2.920837960153   109.05580335   263.45333405
 H      7   3   1     2.060276484501   133.82832632    43.40012297
 H      7   3   1     2.060866345207    85.13115890   155.64531538
 C     13   7   3     2.881555139421   109.34152717   334.90156378
 H     16  13   7     3.601475524999   141.32266172   293.57465353
 N     13   7   3     2.734680492954   110.37081276    99.11980524
 O     17  16  13     1.834800341843    41.17286518   359.41471659
 H     18  13   7     1.917623952491   110.14594127   178.65188048
 O     16  13   7     2.272044370568   124.38599072   114.16851023
 H     13   7   3     2.072515288326   108.35425629   217.75734963
 H     18  13   7     1.920537708654   109.18144364   295.63592052

---------------------
BASIS SET INFORMATION
---------------------
There are 4 groups of distinct atoms

 Group   1 Type C   : 10s4p1d contracted to 3s2p1d pattern {631/31/1}
 Group   2 Type H   : 4s1p contracted to 2s1p pattern {31/1}
 Group   3 Type N   : 10s4p1d contracted to 3s2p1d pattern {631/31/1}
 Group   4 Type O   : 10s4p1d contracted to 3s2p1d pattern {631/31/1}

Atom   0C    basis set group =>   1
Atom   1C    basis set group =>   1
Atom   2C    basis set group =>   1
Atom   3H    basis set group =>   2
Atom   4H    basis set group =>   2
Atom   5C    basis set group =>   1
Atom   6C    basis set group =>   1
Atom   7H    basis set group =>   2
Atom   8C    basis set group =>   1
Atom   9H    basis set group =>   2
Atom  10C    basis set group =>   1
Atom  11H    basis set group =>   2
Atom  12C    basis set group =>   1
Atom  13H    basis set group =>   2
Atom  14H    basis set group =>   2
Atom  15C    basis set group =>   1
Atom  16H    basis set group =>   2
Atom  17N    basis set group =>   3
Atom  18O    basis set group =>   4
Atom  19H    basis set group =>   2
Atom  20O    basis set group =>   4
Atom  21H    basis set group =>   2
Atom  22H    basis set group =>   2
------------------------------------------------------------------------------
                             ORCA STARTUP CALCULATIONS
------------------------------------------------------------------------------
------------------------------------------------------------------------------
                   ___                                                        
                  /   \      - P O W E R E D   B Y -                         
                 /     \                                                     
                 |  |  |   _    _      __       _____    __    __             
                 |  |  |  | |  | |    /  \     |  _  \  |  |  /  |          
                  \  \/   | |  | |   /    \    | | | |  |  | /  /          
                 / \  \   | |__| |  /  /\  \   | |_| |  |  |/  /          
                |  |  |   |  __  | /  /__\  \  |    /   |      \           
                |  |  |   | |  | | |   __   |  |    \   |  |\   \          
                \     /   | |  | | |  |  |  |  | |\  \  |  | \   \       
                 \___/    |_|  |_| |__|  |__|  |_| \__\ |__|  \__/        
                                                                              
                      - O R C A' S   B I G   F R I E N D -                    
                                      &                                       
                       - I N T E G R A L  F E E D E R -                       
                                                                              
 v1 FN, 2020, v2 2021, v3 2022-2024                                           
------------------------------------------------------------------------------


----------------------
SHARK INTEGRAL PACKAGE
----------------------

Number of atoms                             ...     23
Number of basis functions                   ...    223
Number of shells                            ...    105
Maximum angular momentum                    ...      2
Integral batch strategy                     ... SHARK/LIBINT Hybrid
RI-J (if used) integral strategy            ... SPLIT-RIJ (Revised 2003 algorithm where possible)
Printlevel                                  ...      1
Contraction scheme used                     ... SEGMENTED contraction
Prescreening option                         ... SCHWARTZ
   Thresh                                   ... 2.500e-11
   Tcut                                     ... 2.500e-12
   Tpresel                                  ... 2.500e-12 
Coulomb Range Separation                    ... NOT USED
Exchange Range Separation                   ... NOT USED
Multipole approximations                    ... NOT USED
Finite Nucleus Model                        ... NOT USED
CABS basis                                  ... NOT available
Auxiliary Coulomb fitting basis             ... NOT available
Auxiliary J/K fitting basis                 ... NOT available
Auxiliary Correlation fitting basis         ... NOT available
Auxiliary 'external' fitting basis          ... NOT available

Checking pre-screening integrals            ... done (  0.0 sec) Dimension = 105
   => SHARK Basis and OBASIS are compatible. Storing Pre-screening
Shell pair information
Shell pair cut-off parameter TPreSel        ...   2.5e-12
Total number of shell pairs                 ...      5565
Shell pairs after pre-screening             ...      4892
Total number of primitive shell pairs       ...     28015
Primitive shell pairs kept                  ...     15627
          la=0 lb=0:   1495 shell pairs
          la=1 lb=0:   1780 shell pairs
          la=1 lb=1:    561 shell pairs
          la=2 lb=0:    611 shell pairs
          la=2 lb=1:    373 shell pairs
          la=2 lb=2:     72 shell pairs

Checking whether 4 symmetric matrices of dimension 223 fit in memory
:Max Core in MB      =   4096.00
 MB in use           =      7.82
 MB left             =   4088.18
 MB needed           =      0.76
 Data fit in memory  = YES
Calculating Nuclear repulsion               ... done (  0.0 sec) ENN=    701.648014097803 Eh

Diagonalization of the overlap matrix:
Smallest eigenvalue                        ... 4.379e-04
Time for diagonalization                   ...    0.003 sec
Threshold for overlap eigenvalues          ... 1.000e-07
Number of eigenvalues below threshold      ... 0
Time for construction of square roots      ...    0.001 sec
Total time needed                          ...    0.004 sec

-------------------
DFT GRID GENERATION
-------------------

General Integration Accuracy     IntAcc      ... 4.388
Radial Grid Type                 RadialGrid  ... OptM3 with GC (2021)
Angular Grid (max. ang.)         AngularGrid ... 4 (Lebedev-302)
Angular grid pruning method      GridPruning ... 4 (adaptive)
Weight generation scheme         WeightScheme... mBecke (2022)
Basis function cutoff            BFCut       ... 1.0000e-11
Integration weight cutoff        WCut        ... 1.0000e-14
Partially contracted basis set               ... off
Rotationally invariant grid construction     ... off
Angular grids for H and He will be reduced by one unit

Total number of grid points                  ...   107127
Total number of batches                      ...     1685
Average number of points per batch           ...       63
Average number of grid points per atom       ...     4658
Grids setup in   0.5 sec
Initializing property integral containers    ... done (  0.0 sec)

SHARK setup successfully completed in   0.6 seconds

Maximum memory used throughout the entire STARTUP-calculation: 43.9 MB
-------------------------------------------------------------------------------
                                 ORCA GUESS
                   Start orbitals & Density for SCF / CASSCF
-------------------------------------------------------------------------------

------------
SCF SETTINGS
------------
Hamiltonian:
 Ab initio Hamiltonian  Method          .... Hartree-Fock(GTOs)


General Settings:
 Integral files         IntName         .... 0
 Hartree-Fock type      HFTyp           .... RHF
 Total Charge           Charge          ....    0
 Multiplicity           Mult            ....    1
 Number of Electrons    NEL             ....   88
 Basis Dimension        Dim             ....  223
 Nuclear Repulsion      ENuc            ....    701.6480140978 Eh

Convergence Acceleration:
 AO-DIIS                CNVDIIS         .... on
   Start iteration      DIISMaxIt       ....    12
   Startup error        DIISStart       ....  0.200000
   # of expansion vecs  DIISMaxEq       ....     5
   Bias factor          DIISBfac        ....   1.050
   Max. coefficient     DIISMaxC        ....  10.000
 MO-DIIS                CNVKDIIS        .... off
 Trust-Rad. Augm. Hess. CNVTRAH         .... auto
   Auto Start mean grad. ratio tolernc. ....  1.125000
   Auto Start start iteration           ....    50
   Auto Start num. interpolation iter.  ....    10
   Max. Number of Micro iterations      ....    24
   Max. Number of Macro iterations      .... Maxiter - #DIIS iter
   Number of Davidson start vectors     ....     2
   Converg. threshold    (grad. norm)   ....   1.000e-05
   Grad. Scal. Fac. for Micro threshold ....   0.100
   Minimum threshold for Micro iter.    ....   1.000e-02
   NR start threshold (gradient norm)   ....   1.000e-04
   Initial trust radius                 ....   0.400
   Minimum AH scaling param. (alpha)    ....   1.000
   Maximum AH scaling param. (alpha)    .... 1000.000
   Quad. conv. algorithm                .... NR
   White noise on init. David. guess    .... on
   Maximum white noise                  ....   0.010
   Pseudo random numbers                .... off
   Inactive MOs                         .... canonical
   Orbital update algorithm             .... Taylor
   Preconditioner                       .... Diag
   Full preconditioner red. dimension   ....   250
 SOSCF                 CNVSOSCF           .... on
   Start iteration     SOSCFMaxIt         ....   150
   Startup grad/error  SOSCFStart         ....  0.003300
   Hessian update      SOSCFHessUp        .... L-BFGS
   Autom. constraints  SOSCFAutoConstrain .... off
 Level Shifting         CNVShift        .... on
   Level shift para.    LevelShift      ....    0.2500
   Turn off err/grad.   ShiftErr        ....    0.0010
 Zerner damping         CNVZerner       .... off
 Static damping         CNVDamp         .... on
   Fraction old density DampFac         ....    0.7000
   Max. Damping (<1)    DampMax         ....    0.9800
   Min. Damping (>=0)   DampMin         ....    0.0000
   Turn off err/grad.   DampErr         ....    0.1000

SCF Procedure:
 Maximum # iterations   MaxIter         ....   125
 SCF integral mode      SCFMode         .... Direct
   Integral package                     .... SHARK and LIBINT hybrid scheme
 Reset frequency        DirectResetFreq ....    20
 Integral Threshold     Thresh          ....  2.500e-11 Eh
 Primitive CutOff       TCut            ....  2.500e-12 Eh

Convergence Tolerance:
 Convergence Check Mode ConvCheckMode   .... Total+1el-Energy
 Convergence forced     ConvForced      .... 1
 Energy Change          TolE            ....  1.000e-08 Eh
 1-El. energy change                    ....  1.000e-05 Eh
 Orbital Gradient       TolG            ....  1.000e-05
 Orbital Rotation angle TolX            ....  1.000e-05
 DIIS Error             TolErr          ....  5.000e-07

------------------------------
INITIAL GUESS: MODEL POTENTIAL
------------------------------
Loading Hartree-Fock densities                     ... done
Calculating cut-offs                               ... done
Initializing the effective Hamiltonian             ... done
Setting up the integral package (SHARK)            ... done
Starting the Coulomb interaction                   ... done (   0.1 sec)
Making the grid                                    ... done (   0.1 sec)
Mapping shells                                     ... done
Starting the XC term evaluation                    ... done (   0.1 sec)
Transforming the Hamiltonian                       ... done (   0.0 sec)
Diagonalizing the Hamiltonian                      ... done (   0.0 sec)
Back transforming the eigenvectors                 ... done (   0.0 sec)
Now organizing SCF variables                       ... done
                      ------------------
                      INITIAL GUESS DONE (   0.3 sec)
                      ------------------
             **** ENERGY FILE WAS UPDATED (0.en.tmp) ****
Finished Guess after   0.4 sec
Maximum memory used throughout the entire GUESS-calculation: 14.4 MB

-------------------------------------------------------------------------------------------
                                      ORCA LEAN-SCF
                              memory conserving SCF solver
-------------------------------------------------------------------------------------------

----------------------------------------D-I-I-S--------------------------------------------
Iteration    Energy (Eh)           Delta-E    RMSDP     MaxDP     DIISErr   Damp  Time(sec)
-------------------------------------------------------------------------------------------
               ***  Starting incremental Fock matrix formation  ***
    1    -550.9566258630371749     0.00e+00  2.48e-03  6.47e-02  2.55e-01  0.700   3.5
    2    -551.1248071890780693    -1.68e-01  1.89e-03  4.63e-02  1.56e-01  0.700   3.3
                               ***Turning on AO-DIIS***
    3    -551.2258948280979212    -1.01e-01  1.17e-03  2.03e-02  8.88e-02  0.700   3.2
    4    -551.2903103312354460    -6.44e-02  2.82e-03  4.81e-02  6.44e-02  0.000   3.2
    5    -551.4342241031619096    -1.44e-01  2.89e-04  7.85e-03  7.82e-03  0.000   3.3
    6    -551.4347355375069810    -5.11e-04  1.30e-04  3.44e-03  3.64e-03  0.000   3.0
                              *** Initializing SOSCF ***
---------------------------------------S-O-S-C-F--------------------------------------
Iteration    Energy (Eh)           Delta-E    RMSDP     MaxDP     MaxGrad    Time(sec)
--------------------------------------------------------------------------------------
    7    -551.4348434090337605    -1.08e-04  6.65e-05  2.59e-03  2.66e-03     2.9
               *** Restarting incremental Fock matrix formation ***
    8    -551.4348750885427535    -3.17e-05  3.20e-05  8.60e-04  5.72e-04     3.5
    9    -551.4348826881422383    -7.60e-06  3.40e-05  1.45e-03  3.48e-04     2.6
   10    -551.4348854586156676    -2.77e-06  6.33e-06  2.59e-04  9.67e-05     2.7
   11    -551.4348856570608177    -1.98e-07  2.38e-06  8.44e-05  3.58e-05     2.5
   12    -551.4348857021556114    -4.51e-08  7.42e-07  3.21e-05  8.69e-06     2.2
   13    -551.4348857063999958    -4.24e-09  3.85e-07  1.22e-05  3.33e-06     2.0
                 **** Energy Check signals convergence ****

               *****************************************************
               *                     SUCCESS                       *
               *           SCF CONVERGED AFTER  13 CYCLES          *
               *****************************************************

             **** ENERGY FILE WAS UPDATED (0.en.tmp) ****

----------------
TOTAL SCF ENERGY
----------------

Total Energy       :       -551.43488570634042 Eh          -15005.30610 eV

Components:
Nuclear Repulsion  :        701.64801409780341 Eh           19092.81312 eV
Electronic Energy  :      -1253.08289980414384 Eh          -34098.11922 eV
One Electron Energy:      -2144.09002929713688 Eh          -58343.65583 eV
Two Electron Energy:        891.00712949299304 Eh           24245.53661 eV

Virial components:
Potential Energy   :      -1102.45212555336275 Eh          -29999.24747 eV
Kinetic Energy     :        551.01723984702244 Eh           14993.94137 eV
Virial Ratio       :          2.00075795425100

---------------
SCF CONVERGENCE
---------------

  Last Energy change         ...    4.2444e-09  Tolerance :   1.0000e-08
  Last MAX-Density change    ...    1.2180e-05  Tolerance :   1.0000e-07
  Last RMS-Density change    ...    3.8460e-07  Tolerance :   5.0000e-09
  Last DIIS Error            ...    2.6623e-03  Tolerance :   5.0000e-07
  Last Orbital Gradient      ...    3.3322e-06  Tolerance :   1.0000e-05
  Last Orbital Rotation      ...    9.7269e-06  Tolerance :   1.0000e-05


----------------
ORBITAL ENERGIES
----------------

  NO   OCC          E(Eh)            E(eV) 
   0   2.0000     -20.618338      -561.0535 
   1   2.0000     -20.551117      -559.2243 
   2   2.0000     -15.543606      -422.9630 
   3   2.0000     -11.379879      -309.6623 
   4   2.0000     -11.274843      -306.8041 
   5   2.0000     -11.237017      -305.7748 
   6   2.0000     -11.235332      -305.7289 
   7   2.0000     -11.231172      -305.6157 
   8   2.0000     -11.230933      -305.6092 
   9   2.0000     -11.228210      -305.5351 
  10   2.0000     -11.227968      -305.5286 
  11   2.0000     -11.227508      -305.5160 
  12   2.0000      -1.468038       -39.9473 
  13   2.0000      -1.360682       -37.0261 
  14   2.0000      -1.198680       -32.6178 
  15   2.0000      -1.155310       -31.4376 
  16   2.0000      -1.057749       -28.7828 
  17   2.0000      -1.014894       -27.6167 
  18   2.0000      -0.985895       -26.8276 
  19   2.0000      -0.904767       -24.6200 
  20   2.0000      -0.827867       -22.5274 
  21   2.0000      -0.816313       -22.2130 
  22   2.0000      -0.783299       -21.3146 
  23   2.0000      -0.710704       -19.3392 
  24   2.0000      -0.699218       -19.0267 
  25   2.0000      -0.685844       -18.6628 
  26   2.0000      -0.674547       -18.3554 
  27   2.0000      -0.643099       -17.4996 
  28   2.0000      -0.632253       -17.2045 
  29   2.0000      -0.618454       -16.8290 
  30   2.0000      -0.595999       -16.2180 
  31   2.0000      -0.583463       -15.8768 
  32   2.0000      -0.582456       -15.8494 
  33   2.0000      -0.551204       -14.9990 
  34   2.0000      -0.534199       -14.5363 
  35   2.0000      -0.529624       -14.4118 
  36   2.0000      -0.491010       -13.3611 
  37   2.0000      -0.487305       -13.2602 
  38   2.0000      -0.477310       -12.9883 
  39   2.0000      -0.472836       -12.8665 
  40   2.0000      -0.447432       -12.1752 
  41   2.0000      -0.401012       -10.9121 
  42   2.0000      -0.334402        -9.0995 
  43   2.0000      -0.326093        -8.8734 
  44   0.0000       0.139629         3.7995 
  45   0.0000       0.142221         3.8700 
  46   0.0000       0.190966         5.1964 
  47   0.0000       0.216081         5.8799 
  48   0.0000       0.239411         6.5147 
  49   0.0000       0.251350         6.8396 
  50   0.0000       0.277208         7.5432 
  51   0.0000       0.285481         7.7683 
  52   0.0000       0.301268         8.1979 
  53   0.0000       0.320831         8.7303 
  54   0.0000       0.323842         8.8122 
*Only the first 10 virtual orbitals were printed.

                    ********************************
                    * MULLIKEN POPULATION ANALYSIS *
                    ********************************

-----------------------
MULLIKEN ATOMIC CHARGES
-----------------------
   0 C :   -0.152502
   1 C :   -0.139798
   2 C :   -0.154900
   3 H :    0.149369
   4 H :    0.153437
   5 C :   -0.168093
   6 C :   -0.229228
   7 H :    0.151197
   8 C :   -0.038364
   9 H :    0.149453
  10 C :   -0.137607
  11 H :    0.163800
  12 C :   -0.031322
  13 H :    0.155191
  14 H :    0.147765
  15 C :    0.793930
  16 H :    0.371902
  17 N :   -0.685442
  18 O :   -0.641847
  19 H :    0.277624
  20 O :   -0.581366
  21 H :    0.158130
  22 H :    0.288671
Sum of atomic charges:   -0.0000000

--------------------------------
MULLIKEN REDUCED ORBITAL CHARGES
--------------------------------
  0 C s       :     3.145494  s :     3.145494
      pz      :     0.930525  p :     2.962404
      px      :     1.012211
      py      :     1.019668
      dz2     :     0.012659  d :     0.044604
      dxz     :     0.010222
      dyz     :     0.011449
      dx2y2   :     0.003637
      dxy     :     0.006637

  1 C s       :     3.144932  s :     3.144932
      pz      :     1.052862  p :     2.949859
      px      :     0.951180
      py      :     0.945817
      dz2     :     0.012876  d :     0.045006
      dxz     :     0.007903
      dyz     :     0.009545
      dx2y2   :     0.007506
      dxy     :     0.007177

  2 C s       :     3.137210  s :     3.137210
      pz      :     1.060518  p :     2.973284
      px      :     0.960068
      py      :     0.952698
      dz2     :     0.012706  d :     0.044406
      dxz     :     0.007868
      dyz     :     0.009516
      dx2y2   :     0.007178
      dxy     :     0.007137

  3 H s       :     0.836880  s :     0.836880
      pz      :     0.005009  p :     0.013752
      px      :     0.004148
      py      :     0.004595

  4 H s       :     0.832661  s :     0.832661
      pz      :     0.009657  p :     0.013902
      px      :     0.002184
      py      :     0.002061

  5 C s       :     3.147325  s :     3.147325
      pz      :     0.971339  p :     2.976331
      px      :     0.997241
      py      :     1.007751
      dz2     :     0.011569  d :     0.044437
      dxz     :     0.010001
      dyz     :     0.011631
      dx2y2   :     0.004817
      dxy     :     0.006419

  6 C s       :     3.240285  s :     3.240285
      pz      :     1.081507  p :     2.940851
      px      :     0.889234
      py      :     0.970111
      dz2     :     0.009462  d :     0.048092
      dxz     :     0.005664
      dyz     :     0.012089
      dx2y2   :     0.009428
      dxy     :     0.011449

  7 H s       :     0.835057  s :     0.835057
      pz      :     0.009656  p :     0.013746
      px      :     0.002081
      py      :     0.002008

  8 C s       :     3.129174  s :     3.129174
      pz      :     0.940650  p :     2.857538
      px      :     0.975556
      py      :     0.941333
      dz2     :     0.013549  d :     0.051652
      dxz     :     0.011456
      dyz     :     0.013032
      dx2y2   :     0.006084
      dxy     :     0.007531

  9 H s       :     0.836762  s :     0.836762
      pz      :     0.002429  p :     0.013785
      px      :     0.005167
      py      :     0.006189

 10 C s       :     3.144116  s :     3.144116
      pz      :     0.974984  p :     2.948469
      px      :     0.986778
      py      :     0.986707
      dz2     :     0.011574  d :     0.045022
      dxz     :     0.010279
      dyz     :     0.011680
      dx2y2   :     0.005036
      dxy     :     0.006452

 11 H s       :     0.822310  s :     0.822310
      pz      :     0.004962  p :     0.013890
      px      :     0.004217
      py      :     0.004711

 12 C s       :     3.208368  s :     3.208368
      pz      :     0.826207  p :     2.752292
      px      :     0.983757
      py      :     0.942328
      dz2     :     0.014532  d :     0.070662
      dxz     :     0.013145
      dyz     :     0.022384
      dx2y2   :     0.009908
      dxy     :     0.010694

 13 H s       :     0.832165  s :     0.832165
      pz      :     0.004842  p :     0.012644
      px      :     0.001717
      py      :     0.006085

 14 H s       :     0.839623  s :     0.839623
      pz      :     0.007831  p :     0.012612
      px      :     0.002331
      py      :     0.002450

 15 C s       :     2.948188  s :     2.948188
      pz      :     0.656104  p :     2.111923
      px      :     0.626229
      py      :     0.829591
      dz2     :     0.037850  d :     0.145958
      dxz     :     0.018666
      dyz     :     0.045946
      dx2y2   :     0.020761
      dxy     :     0.022736

 16 H s       :     0.586588  s :     0.586588
      pz      :     0.012359  p :     0.041511
      px      :     0.008719
      py      :     0.020432

 17 N s       :     3.601592  s :     3.601592
      pz      :     1.287230  p :     4.049365
      px      :     1.172427
      py      :     1.589708
      dz2     :     0.010547  d :     0.034484
      dxz     :     0.006004
      dyz     :     0.003963
      dx2y2   :     0.003674
      dxy     :     0.010296

 18 O s       :     3.838852  s :     3.838852
      pz      :     1.341058  p :     4.777723
      px      :     1.828867
      py      :     1.607798
      dz2     :     0.006531  d :     0.025272
      dxz     :     0.003731
      dyz     :     0.008375
      dx2y2   :     0.004801
      dxy     :     0.001835

 19 H s       :     0.696342  s :     0.696342
      pz      :     0.004422  p :     0.026035
      px      :     0.014414
      py      :     0.007199

 20 O s       :     3.875778  s :     3.875778
      pz      :     1.775821  p :     4.672680
      px      :     1.474851
      py      :     1.422008
      dz2     :     0.003745  d :     0.032908
      dxz     :     0.001530
      dyz     :     0.008235
      dx2y2   :     0.007765
      dxy     :     0.011633

 21 H s       :     0.829699  s :     0.829699
      pz      :     0.002741  p :     0.012171
      px      :     0.004061
      py      :     0.005369

 22 H s       :     0.685060  s :     0.685060
      pz      :     0.007584  p :     0.026268
      px      :     0.007497
      py      :     0.011187



                     *******************************
                     * LOEWDIN POPULATION ANALYSIS *
                     *******************************

----------------------
LOEWDIN ATOMIC CHARGES
----------------------
   0 C :   -0.077305
   1 C :   -0.068269
   2 C :   -0.081848
   3 H :    0.075784
   4 H :    0.074523
   5 C :   -0.083402
   6 C :   -0.094590
   7 H :    0.076404
   8 C :   -0.028166
   9 H :    0.075634
  10 C :   -0.066125
  11 H :    0.078888
  12 C :   -0.021306
  13 H :    0.082033
  14 H :    0.077148
  15 C :    0.225372
  16 H :    0.200929
  17 N :   -0.278924
  18 O :   -0.212647
  19 H :    0.132539
  20 O :   -0.303286
  21 H :    0.081371
  22 H :    0.135243

-------------------------------
LOEWDIN REDUCED ORBITAL CHARGES
-------------------------------
  0 C s       :     2.886125  s :     2.886125
      pz      :     1.061395  p :     3.097391
      px      :     1.012503
      py      :     1.023493
      dz2     :     0.029301  d :     0.093789
      dxz     :     0.022056
      dyz     :     0.025086
      dx2y2   :     0.005765
      dxy     :     0.011582

  1 C s       :     2.886708  s :     2.886708
      pz      :     1.059106  p :     3.087043
      px      :     1.006402
      py      :     1.021535
      dz2     :     0.026486  d :     0.094518
      dxz     :     0.016508
      dyz     :     0.020513
      dx2y2   :     0.015164
      dxy     :     0.015847

  2 C s       :     2.884832  s :     2.884832
      pz      :     1.056747  p :     3.102906
      px      :     1.019369
      py      :     1.026791
      dz2     :     0.026465  d :     0.094110
      dxz     :     0.016555
      dyz     :     0.020519
      dx2y2   :     0.014463
      dxy     :     0.016108

  3 H s       :     0.882992  s :     0.882992
      pz      :     0.015022  p :     0.041224
      px      :     0.012491
      py      :     0.013710

  4 H s       :     0.883650  s :     0.883650
      pz      :     0.027730  p :     0.041827
      px      :     0.007194
      py      :     0.006903

  5 C s       :     2.885840  s :     2.885840
      pz      :     1.054174  p :     3.103583
      px      :     1.018499
      py      :     1.030911
      dz2     :     0.025742  d :     0.093979
      dxz     :     0.021730
      dyz     :     0.025377
      dx2y2   :     0.008746
      dxy     :     0.012384

  6 C s       :     2.884163  s :     2.884163
      pz      :     1.076923  p :     3.118264
      px      :     0.999004
      py      :     1.042337
      dz2     :     0.017072  d :     0.092163
      dxz     :     0.011128
      dyz     :     0.021334
      dx2y2   :     0.019435
      dxy     :     0.023194

  7 H s       :     0.882294  s :     0.882294
      pz      :     0.027525  p :     0.041303
      px      :     0.006964
      py      :     0.006813

  8 C s       :     2.865754  s :     2.865754
      pz      :     1.070291  p :     3.050799
      px      :     0.985359
      py      :     0.995148
      dz2     :     0.031546  d :     0.111614
      dxz     :     0.025204
      dyz     :     0.028543
      dx2y2   :     0.011555
      dxy     :     0.014765

  9 H s       :     0.882927  s :     0.882927
      pz      :     0.008102  p :     0.041439
      px      :     0.015300
      py      :     0.018038

 10 C s       :     2.886368  s :     2.886368
      pz      :     1.062143  p :     3.085203
      px      :     1.005277
      py      :     1.017783
      dz2     :     0.025808  d :     0.094555
      dxz     :     0.021850
      dyz     :     0.025349
      dx2y2   :     0.009192
      dxy     :     0.012356

 11 H s       :     0.878998  s :     0.878998
      pz      :     0.015173  p :     0.042114
      px      :     0.012710
      py      :     0.014230

 12 C s       :     2.872201  s :     2.872201
      pz      :     0.956795  p :     3.007712
      px      :     1.033977
      py      :     1.016941
      dz2     :     0.029356  d :     0.141392
      dxz     :     0.025383
      dyz     :     0.046135
      dx2y2   :     0.019895
      dxy     :     0.020623

 13 H s       :     0.877547  s :     0.877547
      pz      :     0.015058  p :     0.040420
      px      :     0.006348
      py      :     0.019013

 14 H s       :     0.882555  s :     0.882555
      pz      :     0.023173  p :     0.040296
      px      :     0.008135
      py      :     0.008988

 15 C s       :     2.849990  s :     2.849990
      pz      :     0.880640  p :     2.607423
      px      :     0.676841
      py      :     1.049943
      dz2     :     0.083779  d :     0.317215
      dxz     :     0.040698
      dyz     :     0.103923
      dx2y2   :     0.045096
      dxy     :     0.043719

 16 H s       :     0.678713  s :     0.678713
      pz      :     0.034391  p :     0.120358
      px      :     0.026986
      py      :     0.058982

 17 N s       :     3.185785  s :     3.185785
      pz      :     1.312153  p :     4.032140
      px      :     1.167080
      py      :     1.552907
      dz2     :     0.019001  d :     0.061000
      dxz     :     0.013161
      dyz     :     0.007955
      dx2y2   :     0.006666
      dxy     :     0.014217

 18 O s       :     3.457504  s :     3.457504
      pz      :     1.346337  p :     4.707183
      px      :     1.782106
      py      :     1.578740
      dz2     :     0.015815  d :     0.047960
      dxz     :     0.006932
      dyz     :     0.017493
      dx2y2   :     0.006006
      dxy     :     0.001714

 19 H s       :     0.785911  s :     0.785911
      pz      :     0.014975  p :     0.081549
      px      :     0.042778
      py      :     0.023796

 20 O s       :     3.547465  s :     3.547465
      pz      :     1.744918  p :     4.698351
      px      :     1.450059
      py      :     1.503373
      dz2     :     0.008048  d :     0.057470
      dxz     :     0.002262
      dyz     :     0.015604
      dx2y2   :     0.017436
      dxy     :     0.014119

 21 H s       :     0.879120  s :     0.879120
      pz      :     0.008952  p :     0.039510
      px      :     0.013518
      py      :     0.017039

 22 H s       :     0.781393  s :     0.781393
      pz      :     0.023917  p :     0.083364
      px      :     0.022922
      py      :     0.036525



                      *****************************
                      * MAYER POPULATION ANALYSIS *
                      *****************************

  NA   - Mulliken gross atomic population
  ZA   - Total nuclear charge
  QA   - Mulliken gross atomic charge
  VA   - Mayer's total valence
  BVA  - Mayer's bonded valence
  FA   - Mayer's free valence

  ATOM       NA         ZA         QA         VA         BVA        FA
  0 C      6.1525     6.0000    -0.1525     3.9283     3.9283    -0.0000
  1 C      6.1398     6.0000    -0.1398     3.9197     3.9197    -0.0000
  2 C      6.1549     6.0000    -0.1549     3.9235     3.9235     0.0000
  3 H      0.8506     1.0000     0.1494     0.9535     0.9535    -0.0000
  4 H      0.8466     1.0000     0.1534     0.9578     0.9578     0.0000
  5 C      6.1681     6.0000    -0.1681     3.9203     3.9203     0.0000
  6 C      6.2292     6.0000    -0.2292     3.8011     3.8011     0.0000
  7 H      0.8488     1.0000     0.1512     0.9530     0.9530    -0.0000
  8 C      6.0384     6.0000    -0.0384     3.8866     3.8866    -0.0000
  9 H      0.8505     1.0000     0.1495     0.9537     0.9537    -0.0000
 10 C      6.1376     6.0000    -0.1376     3.9246     3.9246    -0.0000
 11 H      0.8362     1.0000     0.1638     0.9530     0.9530     0.0000
 12 C      6.0313     6.0000    -0.0313     3.7582     3.7582     0.0000
 13 H      0.8448     1.0000     0.1552     0.9486     0.9486     0.0000
 14 H      0.8522     1.0000     0.1478     0.9472     0.9472     0.0000
 15 C      5.2061     6.0000     0.7939     3.6771     3.6771     0.0000
 16 H      0.6281     1.0000     0.3719     0.8726     0.8726     0.0000
 17 N      7.6854     7.0000    -0.6854     2.7634     2.7634    -0.0000
 18 O      8.6418     8.0000    -0.6418     1.8115     1.8115    -0.0000
 19 H      0.7224     1.0000     0.2776     0.9056     0.9056    -0.0000
 20 O      8.5814     8.0000    -0.5814     1.9032     1.9032    -0.0000
 21 H      0.8419     1.0000     0.1581     0.9406     0.9406     0.0000
 22 H      0.7113     1.0000     0.2887     0.9066     0.9066    -0.0000

  Mayer bond orders larger than 0.100000
B(  0-C ,  1-C ) :   1.4504 B(  0-C ,  9-H ) :   0.9619 B(  0-C , 10-C ) :   1.4500 
B(  1-C ,  5-C ) :   1.4440 B(  1-C ,  7-H ) :   0.9612 B(  2-C ,  4-H ) :   0.9557 
B(  2-C ,  8-C ) :   1.4427 B(  2-C , 10-C ) :   1.4480 B(  3-H , 10-C ) :   0.9615 
B(  5-C ,  8-C ) :   1.4437 B(  5-C , 11-H ) :   0.9548 B(  6-C ,  8-C ) :   0.9726 
B(  6-C , 12-C ) :   0.9455 B(  6-C , 13-H ) :   0.9685 B(  6-C , 14-H ) :   0.9702 
B( 12-C , 15-C ) :   0.9144 B( 12-C , 17-N ) :   0.9962 B( 12-C , 21-H ) :   0.9574 
B( 15-C , 18-O ) :   0.9521 B( 15-C , 20-O ) :   1.8347 B( 16-H , 18-O ) :   0.8400 
B( 17-N , 19-H ) :   0.9079 B( 17-N , 22-H ) :   0.8869 

-------
TIMINGS
-------

Total SCF time: 0 days 0 hours 0 min 39 sec 

Total time                  ....      39.835 sec
Sum of individual times     ....      37.924 sec  ( 95.2%)

SCF preparation             ....       0.022 sec  (  0.1%)
Fock matrix formation       ....      37.815 sec  ( 94.9%)
  Startup                   ....       0.001 sec  (  0.0% of F)
  Coulomb+Exchange Fock     ....      39.708 sec  (105.0% of F)
Diagonalization             ....       0.000 sec  (  0.0%)
Density matrix formation    ....       0.008 sec  (  0.0%)
Total Energy calculation    ....       0.001 sec  (  0.0%)
Population analysis         ....       0.003 sec  (  0.0%)
Orbital Transformation      ....       0.009 sec  (  0.0%)
Orbital Orthonormalization  ....       0.000 sec  (  0.0%)
DIIS solution               ....       0.043 sec  (  0.1%)
SOSCF solution              ....       0.021 sec  (  0.1%)
Finished LeanSCF after  39.8 sec

Maximum memory used throughout the entire LEANSCF-calculation: 18.0 MB

------------------------------------------------------------------------------
                                ORCA  MP2 
------------------------------------------------------------------------------

Freezing NCore=24 chemical core electrons
MP2 will be done in the AO integral direct mode
The Q1-step will be done using symmetric double matrices
Dimension of the basis                    ...  223
Memory devoted for MP2                    ... 4096 MB   
Memory needed for all in one shot         ... 1361 MB
Number of MOs that can be treated together...   95      
MP2 density construction                  ... relaxed
The MP2 gradient is requested => amplitudes will be stored on disk
Total number of MOs              ...   32
Number of MOs treated per batch  ...   32 
Number of batches necessary      ...    1 
OPERATORS   0/  0 PASS   0
-----------------------------------------------
 MP2 CORRELATION ENERGY   :     -1.710319755 Eh
-----------------------------------------------


---------------------
MP2 DENSITY FORMATION
---------------------

Completing the external part of the density      ... done
Storing the unrelaxed density                    ... done

Calculating G(D)                                 ... done
Completing the Lagrangian                        ... done
Solving the Z-vector equations                   ... 
-------------------
SHARK CP-SCF DRIVER
-------------------

Dimension of the orbital basis          ...    223
Dimension of the CPSCF-problem          ...   7876
Number of operators                     ...      1
Max. number of iterations               ...    128
Convergence Tolerance                   ... 1.0e-04
Number of perturbations                 ...      1
Perturbation type                       ... REAL

----------------------------
POPLE LINEAR EQUATION SOLVER
----------------------------

  ITERATION   0:   ||err||_max =   1.4401e-01 (   4.5 sec)
  ITERATION   1:   ||err||_max =   3.9483e-02 (   4.5 sec)
  ITERATION   2:   ||err||_max =   1.5817e-02 (   4.7 sec)
  ITERATION   3:   ||err||_max =   4.7587e-03 (   4.5 sec)
  ITERATION   4:   ||err||_max =   1.8789e-03 (   4.6 sec)
  ITERATION   5:   ||err||_max =   7.9122e-04 (   4.5 sec)
  ITERATION   6:   ||err||_max =   3.3102e-04 (   4.7 sec)
  ITERATION   7:   ||err||_max =   1.2699e-04 (   4.5 sec)
  ITERATION   8:   ||err||_max =   4.3452e-05 (   4.6 sec)
                                                 ... done
Finalizing the relaxed density                   ... done
Transforming P to the AO basis                   ... done
Storing the relaxed density                      ... done

------------------------------------
ENERGY WEIGHTED DENSITY FINALIZATION
------------------------------------

Gathering the parts of the W-matrix              ...                                                      done
Forming the Z-density                            ... done
Transforming Z to the AO basis                   ... done
Calculating G(Z)                                 ... done
Finalizing the W-matrix                          ...                                                      done
Transforming W to the AO basis and storing       ... done

                *********************************************
                * UNRELAXED MP2 DENSITY POPULATION ANALYSIS *
                *********************************************

------------------------------------------------------------------------------
                           ORCA POPULATION ANALYSIS
------------------------------------------------------------------------------
Input electron density              ... 0.pmp2ur
BaseName (.gbw .S,...)              ... 0

                    ********************************
                    * MULLIKEN POPULATION ANALYSIS *
                    ********************************

-----------------------
MULLIKEN ATOMIC CHARGES
-----------------------
   0 C :   -0.153001
   1 C :   -0.141433
   2 C :   -0.155377
   3 H :    0.150650
   4 H :    0.154485
   5 C :   -0.168508
   6 C :   -0.230273
   7 H :    0.152465
   8 C :   -0.040364
   9 H :    0.150754
  10 C :   -0.139234
  11 H :    0.164946
  12 C :   -0.036713
  13 H :    0.155876
  14 H :    0.148555
  15 C :    0.759821
  16 H :    0.368606
  17 N :   -0.677219
  18 O :   -0.627941
  19 H :    0.276298
  20 O :   -0.557879
  21 H :    0.158784
  22 H :    0.286702
Sum of atomic charges:   -0.0000000

--------------------------------
MULLIKEN REDUCED ORBITAL CHARGES
--------------------------------
  0 C s       :     3.144604  s :     3.144604
      pz      :     0.925749  p :     2.946976
      px      :     1.006930
      py      :     1.014296
      dz2     :     0.015954  d :     0.061422
      dxz     :     0.013883
      dyz     :     0.015042
      dx2y2   :     0.006918
      dxy     :     0.009625
  1 C s       :     3.143938  s :     3.143938
      pz      :     1.047223  p :     2.935752
      px      :     0.947052
      py      :     0.941477
      dz2     :     0.016331  d :     0.061743
      dxz     :     0.011134
      dyz     :     0.012781
      dx2y2   :     0.011354
      dxy     :     0.010143
  2 C s       :     3.136704  s :     3.136704
      pz      :     1.054186  p :     2.957183
      px      :     0.955291
      py      :     0.947706
      dz2     :     0.016177  d :     0.061490
      dxz     :     0.011150
      dyz     :     0.012783
      dx2y2   :     0.011176
      dxy     :     0.010204
  3 H s       :     0.833010  s :     0.833010
      pz      :     0.005821  p :     0.016340
      px      :     0.005053
      py      :     0.005466
  4 H s       :     0.828986  s :     0.828986
      pz      :     0.010252  p :     0.016529
      px      :     0.003211
      py      :     0.003067
  5 C s       :     3.146720  s :     3.146720
      pz      :     0.966148  p :     2.960279
      px      :     0.992018
      py      :     1.002113
      dz2     :     0.014685  d :     0.061509
      dxz     :     0.013683
      dyz     :     0.015318
      dx2y2   :     0.008417
      dxy     :     0.009407
  6 C s       :     3.236953  s :     3.236953
      pz      :     1.076079  p :     2.928780
      px      :     0.886081
      py      :     0.966620
      dz2     :     0.012637  d :     0.064540
      dxz     :     0.009169
      dyz     :     0.015253
      dx2y2   :     0.012970
      dxy     :     0.014511
  7 H s       :     0.831204  s :     0.831204
      pz      :     0.010246  p :     0.016331
      px      :     0.003084
      py      :     0.003001
  8 C s       :     3.128382  s :     3.128382
      pz      :     0.935874  p :     2.842626
      px      :     0.970050
      py      :     0.936703
      dz2     :     0.016989  d :     0.069355
      dxz     :     0.015315
      dyz     :     0.016736
      dx2y2   :     0.009688
      dxy     :     0.010627
  9 H s       :     0.832875  s :     0.832875
      pz      :     0.003363  p :     0.016371
      px      :     0.006025
      py      :     0.006984
 10 C s       :     3.143113  s :     3.143113
      pz      :     0.969788  p :     2.934369
      px      :     0.982433
      py      :     0.982149
      dz2     :     0.014668  d :     0.061753
      dxz     :     0.013927
      dyz     :     0.015325
      dx2y2   :     0.008497
      dxy     :     0.009336
 11 H s       :     0.818561  s :     0.818561
      pz      :     0.005781  p :     0.016493
      px      :     0.005132
      py      :     0.005580
 12 C s       :     3.205210  s :     3.205210
      pz      :     0.826461  p :     2.745273
      px      :     0.978949
      py      :     0.939864
      dz2     :     0.017525  d :     0.086230
      dxz     :     0.016418
      dyz     :     0.025036
      dx2y2   :     0.013130
      dxy     :     0.014121
 13 H s       :     0.828759  s :     0.828759
      pz      :     0.005695  p :     0.015364
      px      :     0.002770
      py      :     0.006899
 14 H s       :     0.836075  s :     0.836075
      pz      :     0.008546  p :     0.015370
      px      :     0.003359
      py      :     0.003465
 15 C s       :     2.950216  s :     2.950216
      pz      :     0.662289  p :     2.133392
      px      :     0.642527
      py      :     0.828576
      dz2     :     0.039921  d :     0.156572
      dxz     :     0.020859
      dyz     :     0.048141
      dx2y2   :     0.022794
      dxy     :     0.024857
 16 H s       :     0.588726  s :     0.588726
      pz      :     0.012697  p :     0.042668
      px      :     0.009361
      py      :     0.020610
 17 N s       :     3.596924  s :     3.596924
      pz      :     1.278710  p :     4.023725
      px      :     1.166770
      py      :     1.578246
      dz2     :     0.014781  d :     0.056570
      dxz     :     0.010246
      dyz     :     0.008677
      dx2y2   :     0.008195
      dxy     :     0.014671
 18 O s       :     3.834594  s :     3.834594
      pz      :     1.332364  p :     4.744974
      px      :     1.815103
      py      :     1.597508
      dz2     :     0.011048  d :     0.048373
      dxz     :     0.008589
      dyz     :     0.013022
      dx2y2   :     0.009319
      dxy     :     0.006395
 19 H s       :     0.695646  s :     0.695646
      pz      :     0.005295  p :     0.028056
      px      :     0.014727
      py      :     0.008035
 20 O s       :     3.871040  s :     3.871040
      pz      :     1.761348  p :     4.632296
      px      :     1.458628
      py      :     1.412320
      dz2     :     0.008232  d :     0.054542
      dxz     :     0.005941
      dyz     :     0.012747
      dx2y2   :     0.011845
      dxy     :     0.015778
 21 H s       :     0.826348  s :     0.826348
      pz      :     0.003709  p :     0.014868
      px      :     0.004959
      py      :     0.006201
 22 H s       :     0.684994  s :     0.684994
      pz      :     0.008322  p :     0.028304
      px      :     0.008180
      py      :     0.011802


                     *******************************
                     * LOEWDIN POPULATION ANALYSIS *
                     *******************************

----------------------
LOEWDIN ATOMIC CHARGES
----------------------
   0 C :   -0.077178
   1 C :   -0.069131
   2 C :   -0.081376
   3 H :    0.076234
   4 H :    0.074845
   5 C :   -0.082872
   6 C :   -0.094627
   7 H :    0.076853
   8 C :   -0.029872
   9 H :    0.076110
  10 C :   -0.067026
  11 H :    0.079291
  12 C :   -0.024900
  13 H :    0.082192
  14 H :    0.077330
  15 C :    0.200894
  16 H :    0.198482
  17 N :   -0.274161
  18 O :   -0.203989
  19 H :    0.131792
  20 O :   -0.284489
  21 H :    0.081490
  22 H :    0.134106

-------------------------------
LOEWDIN REDUCED ORBITAL CHARGES
-------------------------------
  0 C s       :     2.885980  s :     2.885980
      pz      :     1.053714  p :     3.077456
      px      :     1.006506
      py      :     1.017237
      dz2     :     0.033742  d :     0.113742
      dxz     :     0.026202
      dyz     :     0.029268
      dx2y2   :     0.009125
      dxy     :     0.015406
  1 C s       :     2.886532  s :     2.886532
      pz      :     1.052157  p :     3.068205
      px      :     1.000733
      py      :     1.015316
      dz2     :     0.030398  d :     0.114393
      dxz     :     0.020222
      dyz     :     0.024370
      dx2y2   :     0.019219
      dxy     :     0.020184
  2 C s       :     2.884694  s :     2.884694
      pz      :     1.049580  p :     3.082070
      px      :     1.012663
      py      :     1.019827
      dz2     :     0.030493  d :     0.114612
      dxz     :     0.020362
      dyz     :     0.024437
      dx2y2   :     0.018706
      dxy     :     0.020614
  3 H s       :     0.877889  s :     0.877889
      pz      :     0.016694  p :     0.045877
      px      :     0.013948
      py      :     0.015235
  4 H s       :     0.878546  s :     0.878546
      pz      :     0.029787  p :     0.046609
      px      :     0.008545
      py      :     0.008277
  5 C s       :     2.885678  s :     2.885678
      pz      :     1.046534  p :     3.082749
      px      :     1.012033
      py      :     1.024183
      dz2     :     0.030092  d :     0.114445
      dxz     :     0.025815
      dyz     :     0.029541
      dx2y2   :     0.012480
      dxy     :     0.016517
  6 C s       :     2.883942  s :     2.883942
      pz      :     1.070316  p :     3.099208
      px      :     0.992816
      py      :     1.036077
      dz2     :     0.020861  d :     0.111477
      dxz     :     0.015077
      dyz     :     0.025231
      dx2y2   :     0.023384
      dxy     :     0.026923
  7 H s       :     0.877198  s :     0.877198
      pz      :     0.029548  p :     0.045949
      px      :     0.008260
      py      :     0.008141
  8 C s       :     2.866063  s :     2.866063
      pz      :     1.062328  p :     3.030802
      px      :     0.979313
      py      :     0.989161
      dz2     :     0.036192  d :     0.133007
      dxz     :     0.029616
      dyz     :     0.032910
      dx2y2   :     0.015313
      dxy     :     0.018976
  9 H s       :     0.877823  s :     0.877823
      pz      :     0.009573  p :     0.046067
      px      :     0.016819
      py      :     0.019674
 10 C s       :     2.886194  s :     2.886194
      pz      :     1.054699  p :     3.066406
      px      :     0.999825
      py      :     1.011882
      dz2     :     0.030085  d :     0.114426
      dxz     :     0.025813
      dyz     :     0.029384
      dx2y2   :     0.012785
      dxy     :     0.016358
 11 H s       :     0.873869  s :     0.873869
      pz      :     0.016869  p :     0.046839
      px      :     0.014188
      py      :     0.015783
 12 C s       :     2.872496  s :     2.872496
      pz      :     0.953381  p :     2.992957
      px      :     1.027397
      py      :     1.012179
      dz2     :     0.032923  d :     0.159447
      dxz     :     0.029111
      dyz     :     0.049140
      dx2y2   :     0.023639
      dxy     :     0.024635
 13 H s       :     0.872631  s :     0.872631
      pz      :     0.016660  p :     0.045177
      px      :     0.007701
      py      :     0.020816
 14 H s       :     0.877556  s :     0.877556
      pz      :     0.025129  p :     0.045114
      px      :     0.009555
      py      :     0.010429
 15 C s       :     2.850799  s :     2.850799
      pz      :     0.882290  p :     2.619503
      px      :     0.691026
      py      :     1.046187
      dz2     :     0.086035  d :     0.328804
      dxz     :     0.042901
      dyz     :     0.105829
      dx2y2   :     0.048243
      dxy     :     0.045796
 16 H s       :     0.678677  s :     0.678677
      pz      :     0.035133  p :     0.122841
      px      :     0.027618
      py      :     0.060090
 17 N s       :     3.183963  s :     3.183963
      pz      :     1.302969  p :     4.005064
      px      :     1.160609
      py      :     1.541486
      dz2     :     0.023856  d :     0.085134
      dxz     :     0.017746
      dyz     :     0.013038
      dx2y2   :     0.011404
      dxy     :     0.019091
 18 O s       :     3.455613  s :     3.455613
      pz      :     1.338059  p :     4.675787
      px      :     1.768899
      py      :     1.568829
[...]
      pz      :     1.049358  p :     3.070266
      px      :     1.004710
      py      :     1.016198
      dz2     :     0.028582  d :     0.106482
      dxz     :     0.018907
      dyz     :     0.022143
      dx2y2   :     0.017917
      dxy     :     0.018932
  2 C s       :     2.896587  s :     2.896587
      pz      :     1.048618  p :     3.074157
      px      :     1.009736
      py      :     1.015803
      dz2     :     0.028639  d :     0.106654
      dxz     :     0.018830
      dyz     :     0.022150
      dx2y2   :     0.017753
      dxy     :     0.019282
  3 H s       :     0.880342  s :     0.880342
      pz      :     0.015974  p :     0.045058
      px      :     0.013559
      py      :     0.015524
  4 H s       :     0.880744  s :     0.880744
      pz      :     0.028829  p :     0.045788
      px      :     0.008765
      py      :     0.008195
  5 C s       :     2.897805  s :     2.897805
      pz      :     1.044623  p :     3.072188
      px      :     1.007262
      py      :     1.020303
      dz2     :     0.027804  d :     0.106463
      dxz     :     0.024311
      dyz     :     0.027500
      dx2y2   :     0.011641
      dxy     :     0.015207
  6 C s       :     2.887703  s :     2.887703
      pz      :     1.076066  p :     3.118528
      px      :     0.999665
      py      :     1.042798
      dz2     :     0.019558  d :     0.104977
      dxz     :     0.014684
      dyz     :     0.023248
      dx2y2   :     0.023318
      dxy     :     0.024169
  7 H s       :     0.879711  s :     0.879711
      pz      :     0.028468  p :     0.045110
      px      :     0.008511
      py      :     0.008131
  8 C s       :     2.875846  s :     2.875846
      pz      :     1.054583  p :     3.027605
      px      :     0.979935
      py      :     0.993088
      dz2     :     0.033896  d :     0.124357
      dxz     :     0.027564
      dyz     :     0.030762
      dx2y2   :     0.014530
      dxy     :     0.017606
  9 H s       :     0.880082  s :     0.880082
      pz      :     0.010001  p :     0.045150
      px      :     0.016766
      py      :     0.018383
 10 C s       :     2.896143  s :     2.896143
      pz      :     1.050965  p :     3.068990
      px      :     1.004553
      py      :     1.013471
      dz2     :     0.027880  d :     0.106515
      dxz     :     0.024455
      dyz     :     0.027481
      dx2y2   :     0.011643
      dxy     :     0.015055
 11 H s       :     0.874861  s :     0.874861
      pz      :     0.016056  p :     0.045942
      px      :     0.013881
      py      :     0.016006
 12 C s       :     2.875536  s :     2.875536
      pz      :     0.957629  p :     3.016746
      px      :     1.029888
      py      :     1.029228
      dz2     :     0.034478  d :     0.152300
      dxz     :     0.025814
      dyz     :     0.046157
      dx2y2   :     0.021214
      dxy     :     0.024636
 13 H s       :     0.871799  s :     0.871799
      pz      :     0.015787  p :     0.044909
      px      :     0.008066
      py      :     0.021055
 14 H s       :     0.873610  s :     0.873610
      pz      :     0.025017  p :     0.045173
      px      :     0.009855
      py      :     0.010301
 15 C s       :     2.864316  s :     2.864316
      pz      :     0.890709  p :     2.689148
      px      :     0.778617
      py      :     1.019822
      dz2     :     0.070010  d :     0.304581
      dxz     :     0.040008
      dyz     :     0.104625
      dx2y2   :     0.047265
      dxy     :     0.042674
 16 H s       :     0.692081  s :     0.692081
      pz      :     0.034748  p :     0.120550
      px      :     0.027446
      py      :     0.058356
 17 N s       :     3.198057  s :     3.198057
      pz      :     1.339257  p :     3.979239
      px      :     1.165149
      py      :     1.474832
      dz2     :     0.024444  d :     0.083313
      dxz     :     0.014998
      dyz     :     0.012149
      dx2y2   :     0.013075
      dxy     :     0.018648
 18 O s       :     3.483539  s :     3.483539
      pz      :     1.333822  p :     4.628578
      px      :     1.737465
      py      :     1.557291
      dz2     :     0.018358  d :     0.071851
      dxz     :     0.012651
      dyz     :     0.022750
      dx2y2   :     0.011207
      dxy     :     0.006885
 19 H s       :     0.785485  s :     0.785485
      pz      :     0.017390  p :     0.083790
      px      :     0.043314
      py      :     0.023086
 20 O s       :     3.560407  s :     3.560407
      pz      :     1.715837  p :     4.579661
      px      :     1.391445
      py      :     1.472379
      dz2     :     0.012315  d :     0.079002
      dxz     :     0.006387
      dyz     :     0.018478
      dx2y2   :     0.022153
      dxy     :     0.019670
 21 H s       :     0.869834  s :     0.869834
      pz      :     0.009726  p :     0.044563
      px      :     0.015364
      py      :     0.019474
 22 H s       :     0.783424  s :     0.783424
      pz      :     0.022318  p :     0.085380
      px      :     0.023142
      py      :     0.039920


                      *****************************
                      * MAYER POPULATION ANALYSIS *
                      *****************************

  NA   - Mulliken gross atomic population
  ZA   - Total nuclear charge
  QA   - Mulliken gross atomic charge
  VA   - Mayer's total valence
  BVA  - Mayer's bonded valence
  FA   - Mayer's free valence

  ATOM       NA         ZA         QA         VA         BVA        FA
  0 C      6.1191     6.0000    -0.1191     4.0229     3.6977     0.3252
  1 C      6.1202     6.0000    -0.1202     4.0157     3.6906     0.3251
  2 C      6.1304     6.0000    -0.1304     4.0176     3.6851     0.3324
  3 H      0.8789     1.0000     0.1211     0.9653     0.9188     0.0465
  4 H      0.8784     1.0000     0.1216     0.9735     0.9259     0.0476
  5 C      6.1375     6.0000    -0.1375     4.0132     3.6813     0.3319
  6 C      6.2469     6.0000    -0.2469     3.9313     3.6599     0.2714
  7 H      0.8772     1.0000     0.1228     0.9649     0.9185     0.0465
  8 C      5.9896     6.0000     0.0104     4.0223     3.6787     0.3436
  9 H      0.8783     1.0000     0.1217     0.9653     0.9188     0.0465
 10 C      6.1188     6.0000    -0.1188     4.0208     3.6959     0.3249
 11 H      0.8643     1.0000     0.1357     0.9671     0.9204     0.0467
 12 C      6.0558     6.0000    -0.0558     3.9041     3.6257     0.2784
 13 H      0.8590     1.0000     0.1410     0.9594     0.9108     0.0486
 14 H      0.8600     1.0000     0.1400     0.9589     0.9101     0.0487
 15 C      5.4329     6.0000     0.5671     3.9485     3.6660     0.2825
 16 H      0.6579     1.0000     0.3421     0.9026     0.8585     0.0441
 17 N      7.6069     7.0000    -0.6069     3.0324     2.7087     0.3237
 18 O      8.5297     8.0000    -0.5297     2.1876     1.8342     0.3534
 19 H      0.7397     1.0000     0.2603     0.9202     0.8738     0.0464
 20 O      8.4318     8.0000    -0.4318     2.3282     1.9381     0.3901
 21 H      0.8516     1.0000     0.1484     0.9514     0.9025     0.0489
 22 H      0.7352     1.0000     0.2648     0.9280     0.8810     0.0470

  Mayer bond orders larger than 0.100000
B(  0-C ,  1-C ) :   1.3540 B(  0-C ,  9-H ) :   0.9175 B(  0-C , 10-C ) :   1.3529 
B(  1-C ,  5-C ) :   1.3452 B(  1-C ,  7-H ) :   0.9164 B(  2-C ,  4-H ) :   0.9080 
B(  2-C ,  8-C ) :   1.3373 B(  2-C , 10-C ) :   1.3503 B(  3-H , 10-C ) :   0.9165 
B(  5-C ,  8-C ) :   1.3374 B(  5-C , 11-H ) :   0.9079 B(  6-C ,  8-C ) :   0.9364 
B(  6-C , 12-C ) :   0.8978 B(  6-C , 13-H ) :   0.9170 B(  6-C , 14-H ) :   0.9165 
B( 12-C , 15-C ) :   0.8675 B( 12-C , 17-N ) :   0.9773 B( 12-C , 21-H ) :   0.9054 
B( 15-C , 18-O ) :   0.9651 B( 15-C , 20-O ) :   1.8218 B( 16-H , 18-O ) :   0.8120 
B( 17-N , 19-H ) :   0.8708 B( 17-N , 22-H ) :   0.8544 


----------------------------------
MP2 DERIVATIVE INTEGRAL GENERATION
----------------------------------

Input SCF Electron Density              ... 0.scfp
Input Correlated Electron Density       ... 0.pmp2re
Input Energy Weighted Density           ... 0.wmp2.tmp
Input Wavefunction Amplitudes           ... 0.mp2tsaa.tmp

Nuclear repulsion gradient              ... done (  0.0 sec)
HCore & Overlap gradient  (SHARK)       ... done (  0.2 sec)
Analytic two-electron gradient terms    ... 
  Batch handling in the gradient evaluation:
  General contraction                   ... not used
  Memory available                      ... 4077.7 MB
  Memory per occupied orbital in Q2     ...   12.1 MB
  Memory per occupied orbital in Q3     ...    0.0 MB
  Total memory requirement per |i>      ...   12.2 MB
  Number of orbitals treated per batch  ...     32
  Number of batches to be done          ...      1
done ( 41.2 sec)

---------------------------------------
MP2 TOTAL ENERGY:     -553.148531520 Eh
---------------------------------------

The final MP2 gradient
  0:   0.00001871   0.00001358   0.00000314
  1:   0.00000130  -0.00000041   0.00002775
  2:  -0.00000019  -0.00000023  -0.00002445
  3:   0.00000520  -0.00000040   0.00000017
  4:  -0.00000200   0.00000035   0.00000242
  5:  -0.00001395  -0.00001463   0.00000542
  6:  -0.00003170  -0.00001015  -0.00001291
  7:   0.00000093   0.00000230   0.00000097
  8:   0.00000097  -0.00001180  -0.00001280
  9:  -0.00000092   0.00000231   0.00000080
 10:  -0.00000119   0.00000989  -0.00000590
 11:   0.00000270  -0.00000227   0.00000391
 12:   0.00007032  -0.00002603   0.00007844
 13:   0.00000663   0.00000652   0.00001171
 14:   0.00000155   0.00000962   0.00000353
 15:  -0.00001534  -0.00004237  -0.00013016
 16:   0.00001160  -0.00003139  -0.00003345
 17:  -0.00001617   0.00001375  -0.00005293
 18:  -0.00001159   0.00005143   0.00007375
 19:   0.00001254   0.00000430   0.00000054
 20:  -0.00002094   0.00003681   0.00004425
 21:  -0.00002335   0.00001259  -0.00000166
 22:   0.00000488  -0.00002378   0.00001747

-----------------------------------
NORM OF THE MP2 GRADIENT:  0.000233
-----------------------------------

Maximum memory used throughout the entire MP2-calculation: 1448.7 MB

-------------------------   --------------------
FINAL SINGLE POINT ENERGY      -553.148531519732
-------------------------   --------------------

                                *** OPTIMIZATION RUN DONE ***


------------------------------------------------------------------------------
                              ORCA PROPERTY CALCULATIONS
------------------------------------------------------------------------------

GBWName                                 ... 0.gbw
Number of atoms                         ...     23
Number of basis functions               ...    223
Max core memory                         ...   4096 MB

Electric properties:
Dipole moment                           ... YES
Quadrupole moment                       ...  NO
Static polarizability (Dipole/Dipole)   ...  NO
Static polarizability (Dipole/Quad.)    ...  NO
Static polarizability (Quad./Quad.)     ...  NO
Static polarizability (Velocity)        ...  NO
Static hyperpolarizability              ...  NO

Atomic electric properties:
Dipole moment                           ...  NO
Quadrupole moment                       ...  NO
Static polarizability                   ...  NO

Choice of electric origin               ... Center of mass
Position of electric origin             ...    -6.468071     2.727053     0.627021

General magnetic properties:
Magnetizability                         ...  NO

EPR properties:
g-Tensor (aka g-matrix)                 ...  NO
Zero-Field splitting spin-orbit         ...  NO
Zero-field splitting spin-spin          ...  NO
Hyperfine couplings                     ...  NO (   0 nuclei)
Quadrupole couplings                    ...  NO (   0 nuclei)
Contact density                         ...  NO (   0 nuclei)

NMR properties:
Chemical shifts                         ...  NO (   0 nuclei)
Spin-rotation constants                 ...  NO (   0 nuclei)
Spin-spin couplings                     ...  NO (   0 nuclei,    0 pairs)

Choice of magnetic origin               ... GIAO
Position of magnetic origin             ...     0.000000     0.000000     0.000000

Properties with geometric perturbations:
SCF Hessian                             ...  NO
IR spectrum                             ...  NO
VCD spectrum                            ...  NO
X-ray spectroscopy properties:
SCF XES/XAS/RIXS spectra                ...  NO

SCF SOC stabilization energy            ...  NO
Diagonal Born-Oppenheimer correction    ...  NO

-------------
DIPOLE MOMENT
-------------

Method             : SCF
Type of density    : Electron Density
Multiplicity       :   1
Irrep              :   0
Energy             :  -551.4327768173181994 Eh
Basis              : AO
                                X                 Y                 Z
Electronic contribution:      1.270083920      -2.122962995       3.071446718
Nuclear contribution   :     -1.467303322       2.280216841      -2.624515209
                        -----------------------------------------
Total Dipole Moment    :     -0.197219402       0.157253846       0.446931510
                        -----------------------------------------
Magnitude (a.u.)       :      0.513197856
Magnitude (Debye)      :      1.304445283



--------------------
Rotational spectrum 
--------------------
 
Rotational constants in cm-1:             0.052783             0.022839             0.019866 
Rotational constants in MHz :          1582.392130           684.690204           595.570245 

Dipole components along the rotational axes: 
x,y,z [a.u.] :    -0.093998     0.343546    -0.369476 
x,y,z [Debye]:    -0.238924     0.873226    -0.939132 

 

-------------
DIPOLE MOMENT
-------------

Method             : MP2
Type of density    : Electron Density
Multiplicity       :   1
Level              : Unrelaxed density
Irrep              :   0
Energy             :     0.0000000000000000 Eh
Basis              : AO
                                X                 Y                 Z
Electronic contribution:      1.278052743      -2.157227588       3.064958642
Nuclear contribution   :     -1.467303322       2.280216841      -2.624515209
                        -----------------------------------------
Total Dipole Moment    :     -0.189250578       0.122989253       0.440443433
                        -----------------------------------------
Magnitude (a.u.)       :      0.494906613
Magnitude (Debye)      :      1.257952638



--------------------
Rotational spectrum 
--------------------
 
Rotational constants in cm-1:             0.052783             0.022839             0.019866 
Rotational constants in MHz :          1582.392130           684.690204           595.570245 

Dipole components along the rotational axes: 
x,y,z [a.u.] :    -0.090713     0.352754    -0.335065 
x,y,z [Debye]:    -0.230574     0.896629    -0.851667 

 

-------------
DIPOLE MOMENT
-------------

Method             : MP2
Type of density    : Electron Density
Multiplicity       :   1
Level              : Relaxed density
Irrep              :   0
Energy             :     0.0000000000000000 Eh
Basis              : AO
                                X                 Y                 Z
Electronic contribution:      1.336858121      -2.284136816       3.076450987
Nuclear contribution   :     -1.467303322       2.280216841      -2.624515209
                        -----------------------------------------
Total Dipole Moment    :     -0.130445201      -0.003919975       0.451935778
                        -----------------------------------------
Magnitude (a.u.)       :      0.470401174
Magnitude (Debye)      :      1.195664762



--------------------
Rotational spectrum 
--------------------
 
Rotational constants in cm-1:             0.052783             0.022839             0.019866 
Rotational constants in MHz :          1582.392130           684.690204           595.570245 

Dipole components along the rotational axes: 
x,y,z [a.u.] :    -0.121238     0.404089    -0.208065 
x,y,z [Debye]:    -0.308163     1.027112    -0.528859 

 

Dipole moment calculation done in   0.0 sec 

Maximum memory used throughout the entire PROP-calculation: 13.0 MB

--------------------------------
SUGGESTED CITATIONS FOR THIS RUN
--------------------------------

Below you find a list of papers that are relevant to this ORCA run
We neither can nor want to force you to cite these papers, but we appreciate if you do
You receive ORCA, which is the product of decades of hard work by many enthusiastic individuals, for free
The only thing we kindly ask in return is that you cite our papers,
We deeply appreciate it, if you show your appreciation for ORCA by not just citing the generic ORCA reference.

Please note that relegating all ORCA citations to the supporting information does *not* help us.
SI sections are not indexed - citations you put there will not count into any citation statistics
But we need these citations in order to attract the funding resources that allow us to do what we are doing

Therefore, if you are a happy ORCA user, please consider citing a few of the papers listed below in the main body of your paper

In addition to the list printed below, the program has created the file 0.bibtex that contains the list in bibtex format
You can import this file easily into all common literature databanks and citation aid programs


List of essential papers. We consider these as the minimum necessary citations

  1. Neese, F.
     Software update: the ORCA program system, version 6.0
     WIRES Comput. Molec. Sci. 2025 15(1), e70019
     doi.org/10.1002/wcms.7019

List of papers to cite with high priority. The work reported in these papers was absolutely
necessary for this run to complete.
Our perspective: the developers of density functionals and basis sets usually get cited in chemistry papers
Good! But without the algorithms to do something with them, the functionals or basis sets would not do anything.
Hence, in our opinion, the algorithm design and method developments papers are equally worthy of getting cited

  1. Neese, F.
     The SHARK Integral Generation and Digestion System
     J. Comp. Chem. 2022 44(3), 381
     doi.org/10.1002/jcc.26942

List of suggested additional citations. These are papers that are important in the 'surrounding' of 
of this run, or papers that preceded the highly important papers. If you like your results we are grateful for a citation.

  1. Neese, F.
     The ORCA program system
     WIRES Comput. Molec. Sci. 2012 2(1), 73-78
     doi.org/10.1002/wcms.81
  2. Neese, F.
     Software update: the ORCA program system, version 4.0
     WIRES Comput. Molec. Sci. 2018 8(1), 1-6
     doi.org/10.1002/wcms.1327
  3. Neese, F.; Wennmohs, F.; Becker, U.; Riplinger, C.
     The ORCA quantum chemistry program package
     J. Chem. Phys. 2020 152(22), 224108
     doi.org/10.1063/5.0004608
  4. Neese, F.
     Software update: The ORCA program system—Version 5.0
     WIRES Comput. Molec. Sci. 2022 12(1), e1606
     doi.org/10.1002/wcms.1606

List of optional additional citations

  1. Neese, F.
     Approximate second-order SCF convergence for spin unrestricted wavefunctions
     Chem. Phys. Lett. 2000 325(1-3), 93-98
     doi.org/10.1016/s0009-2614(00)00662-x

Timings for individual modules:

Sum of individual times          ...     1216.440 sec (=  20.274 min)
Startup calculation              ...        4.671 sec (=   0.078 min)   0.4 %
SCF iterations                   ...      213.041 sec (=   3.551 min)  17.5 %
Property calculations            ...        0.040 sec (=   0.001 min)   0.0 %
MP2 module                       ...      998.673 sec (=  16.645 min)  82.1 %
Geometry relaxation              ...        0.015 sec (=   0.000 min)   0.0 %
                             ****ORCA TERMINATED NORMALLY****
TOTAL RUN TIME: 0 days 0 hours 20 minutes 16 seconds 617 msec
