
                                 *****************
                                 * O   R   C   A *
                                 *****************

                                            #,                                       
                                            ###                                      
                                            ####                                     
                                            #####                                    
                                            ######                                   
                                           ########,                                 
                                     ,,################,,,,,                         
                               ,,#################################,,                 
                          ,,##########################################,,             
                       ,#########################################, ''#####,          
                    ,#############################################,,   '####,        
                  ,##################################################,,,,####,       
                ,###########''''           ''''###############################       
              ,#####''   ,,,,##########,,,,          '''####'''          '####       
            ,##' ,,,,###########################,,,                        '##       
           ' ,,###''''                  '''############,,,                           
         ,,##''                                '''############,,,,        ,,,,,,###''
      ,#''                                            '''#######################'''  
     '                                                          ''''####''''         
             ,#######,   #######,   ,#######,      ##                                
            ,#'     '#,  ##    ##  ,#'     '#,    #''#        ,####,    ,#,          
            ##       ##  ##   ,#'  ##            #'  '#       #'       ,# #          
            ##       ##  #######   ##           ,######,      #####,      #          
            '#,     ,#'  ##    ##  '#,     ,#' ,#      #,     #,   #      #          
             '#######'   ##     ##  '#######'  #'      '#     '####' #    #          



                #########################################################
                #                        -***-                          #
                #          Department of theory and spectroscopy        #
                #                                                       #
                #                      Frank Neese                      #
                #                                                       #
                #     Directorship, Architecture, Infrastructure        #
                #                    SHARK, DRIVERS                     #
                #        Core code/Algorithms in most modules           #
                #                                                       #
                #        Max Planck Institute fuer Kohlenforschung      #
                #                Kaiser Wilhelm Platz 1                 #
                #                 D-45470 Muelheim/Ruhr                 #
                #                      Germany                          #
                #                                                       #
                #                  All rights reserved                  #
                #                        -***-                          #
                #########################################################


                         Program Version 6.1.0  -  RELEASE   -
                                (GIT: $679e74b$)
                          ($2025-06-10 18:02:51 +0200$)


 With contributions from (in alphabetic order):
[Max-Planck-Institut fuer Kohlenforschung]                               
  Daniel Aravena         : Magnetic Suceptibility                        
  Michael Atanasov       : Ab Initio Ligand Field Theory (pilot matlab implementation)
  Alexander A. Auer      : GIAO ZORA, VPT2 properties, NMR spectrum      
  Ute Becker             : All parallelization in ORCA, NUMFREQ, NUMCALC 
  Giovanni Bistoni       : ED, misc. LED, open-shell LED, HFLD           
  Dmytro Bykov           : pre 5.0 version of the SCF Hessian            
  Marcos Casanova-Páez   : Triplet and SCS-CIS(D). UHF-(DLPNO)-IP/EA/STEOM-CCSD. UHF-CVS-IP/STEOM-CCSD   
  Vijay G. Chilkuri      : MRCI spin determinant printing, contributions to CSF-ICE 
  Pauline Colinet        : FMM embedding                                 
  Dipayan Datta          : RHF DLPNO-CCSD density                        
  Achintya Kumar Dutta   : EOM-CC, STEOM-CC                              
  Nicolas Foglia         : Exact transition moments, OPA infrastructure, MCD improvements    
  Dmitry Ganyushin       : Spin-Orbit,Spin-Spin,Magnetic field MRCI      
  Miquel Garcia-Rates    : C-PCM and meta-GGA Hessian, CCSD/C-PCM, Gaussian charge scheme 
  Tiago L. C. Gouveia    : GS-ROHF, GS-ROCIS                             
  Yang Guo               : DLPNO-NEVPT2, F12-NEVPT2, CIM, IAO-localization        
  Andreas Hansen         : Spin unrestricted coupled pair/coupled cluster methods 
  Ingolf Harden          : AUTO-CI MPn and infrastructure                
  Benjamin Helmich-Paris : MC-RPA, TRAH-(SCF,CASSCF), AVAS, COSX integrals, SCF dyn. polar., MC-PDFT, srDFT 
  Lee Huntington         : MR-EOM, pCC                                   
  Robert Izsak           : Overlap fitted RIJCOSX, COSX-SCS-MP3, EOM     
  Riya Kayal             : Wick's Theorem for AUTO-CI, AUTO-CI UHF-CCSDT 
  Emily Kempfer          : AUTO-CI RHF CISDT and CCSDT, approximate NEVPT4
  Christian Kollmar      : KDIIS, OOCD, Brueckner-CCSD(T), CCSD density, CASPT2, CASPT2-K, improved NEVPT2 
  Axel Koslowski         : Symmetry handling                             
  Simone Kossmann        : meta-GGA functionals, TD-DFT gradient, OOMP2, (MP2 Hessian; deprecated post 5.0) 
  Lucas Lang             : DCDCAS, Hyperfine gauge corrections, ICE-SOC+SSC
  Marvin Lechner         : AUTO-CI (C++ implementation), FIC-MRCC        
  Spencer Leger          : CASSCF response                               
  Dagmar Lenk            : GEPOL surface, SMD, ORCA-2-JSON               
  Dimitrios Liakos       : Extrapolation schemes; Compound Job, Property file
  Dimitrios Manganas     : Further ROCIS development; embedding schemes. LFT, Crystal Embedding 
  Dimitrios Pantazis     : SARC Basis sets                               
  Anastasios Papadopoulos: AUTO-CI, single reference methods and gradients 
  Taras Petrenko         : pre 6.0 DFT Hessian and TD-DFT gradient,  ECA, NRVS 
  Petra Pikulova         : Analytic Raman intensities                    
  Peter Pinski           : DLPNO-MP2, DLPNO-MP2 Gradient                 
  Shashank Vittal Rao    : ES-AILFT, MagRelax                            
  Christoph Reimann      : Effective Core Potentials                     
  Marius Retegan         : Local ZFS, SOC                                
  Christoph Riplinger    : Optimizer, TS searches, QM/MM, DLPNO-CCSD(T), (RO)-DLPNO pert. Triples 
  Michael Roemelt        : Original ROCIS implementation, recursive CI coupling coefficients
  Masaaki Saitow         : Open-shell DLPNO-CCSD energy and density      
  Barbara Sandhoefer     : DKH picture change effects                    
  Yorick L. A. Schmerwitz: GMF and freeze-and-release deltaSCF, NEB S-IDPP initial path                    
  Kantharuban Sivalingam : CASSCF convergence/infrastructure, NEVPT2, NEVPT3, NEVPT4(SD), FIC-MRCI and CEPA variants
  Bernardo de Souza      : ESD, SOC TD-DFT                               
  Georgi L. Stoychev     : AutoAux, RI-MP2 NMR, DLPNO-MP2 response, X2C  
  Van Anh Tran           : RI-MP2 g-tensors                              
  Willem Van den Heuvel  : Paramagnetic NMR                              
  Zikuan Wang            : NOTCH, Electric field optimization            
  Frank Wennmohs         : Technical directorship and infrastructure     
  Hang Xu                : AUTO-CI-Response properties                   
                                                                         
[FACCTs GmbH]                                                            
  Markus Bursch, Nicolas Foglia, Miquel Garcia-Rates, Ingolf Harden, Hagen Neugebauer, Anastasios Papadopoulos, 
  Christoph Riplinger, Bernardo de Souza, Georgi L. Stoychev                                                    
                                                                 
  APM, various basis sets, CI-OPT, improved COSX, DLPNO-Multilevel,           
  DOCKER, DRACO, updates on ESD, Fragmentator, GOAT, IRC, LR-CPCM, L-BFGS, MBIS, meta-GGA TD-DFT gradient, ML-optimized integration grids, 
  MM, NACMEs, nearIR, NEB, NEB-TS, NL-DFT gradient (VV10), 2- and 3-layer-ONIOM, interface openCOSMO-RS, QMMM,   
  Crystal-QMMM, RESP, rigid body optimization, SF, symmetry and pop. for TD-DFT, various functionals, SOLVATOR                                   
                                                                         
[Other institutions]                                                     
  V. Asgeirsson          : NEB                                           
  Christoph Bannwarth    : sTDA-DFT, sTD-DFT, PBEh-3c, B97-3c, D3        
  Giovanni Bistoni       : ETS/NOCV, ADLD/ADEX, COVALED                  
  Martin Brehm           : Molecular dynamics                            
  Ronald Cardenas        : ETS/NOCV                                      
  Martina Colucci        : COVALED                                       
  Sebastian Ehlert       : rSCAN, r2SCAN, r2SCAN-3c, D4, dhf basis sets  
  Marvin Friede          : D4 for Fr, Ra, Ac-Lr                          
  Lars Goerigk           : TD-DFT with DH, B97 family of functionals     
  Stefan Grimme          : VdW corrections, initial TS optimization, DFT functionals, gCP, sTDA/sTD-DF 
  Waldemar Hujo          : DFT-NL                                        
  H. Jonsson             : NEB                                           
  Holger Kruse           : gCP                                           
  Marcel Mueller         : wB97X-3c, vDZP basis set                      
  Hagen Neugebauer       : wr2SCAN, Native XTB                           
  Gianluca Regni         : ADLD/ADEX                                     
  Tobias Risthaus        : pre 6.0 range-separated hybrid DFT and stability analysis
  Lukas Wittmann         : regularized MP2, r2SCAN double-hybrids, wr2SCAN        
                                                                         
We gratefully acknowledge several colleagues who have allowed us to      
interface, adapt or use parts of their codes:                            
  Ed Valeev, F. Pavosevic, A. Kumar             : LibInt (2-el integral package), F12 methods 
  Garnet Chan, S. Sharma, J. Yang, R. Olivares  : DMRG                   
  Ulf Ekstrom                                   : XCFun DFT Library      
  Mihaly Kallay                                 : mrcc  (arbitrary order and MRCC methods)
  Frank Weinhold                                : gennbo (NPA and NBO analysis)           
  Simon Mueller                                 : openCOSMO-RS                            
  Christopher J. Cramer and Donald G. Truhlar   : smd solvation model                     
  S Lehtola, MJT Oliveira, MAL Marques          : LibXC Library                           
  Liviu Ungur et al                             : ANISO software                          


 Your calculation uses the libint2 library for the computation of 2-el integrals
 For citations please refer to: http://libint.valeyev.net

 Your ORCA version has been built with support for libXC version: 7.0.0
 For citations please refer to: https://libxc.gitlab.io

 This ORCA versions uses:
   CBLAS   interface :  Fast vector & matrix operations
   LAPACKE interface :  Fast linear algebra routines
   SCALAPACK package :  Parallel linear algebra routines
   Shared memory     :  Shared parallel matrices
   BLAS/LAPACK       :  OpenBLAS 0.3.29  USE64BITINT DYNAMIC_ARCH NO_AFFINITY Haswell SINGLE_THREADED
        Core in use  :  Haswell
   Copyright (c) 2011-2014, The OpenBLAS Project


  ***********************************
  * Starting time: Sat Aug 30 16:34:02 2025
  * Host name:     chemlab03
  * Process ID:    83369
  * Working dir.:  /home/vivek/mm-project/vivek/xtb-goat/B97-D-opt/l/4
  ***********************************



***************************************
The coordinates will be read from file: /home/vivek/mm-project/vivek/xtb-goat/xtb-goat/l/L_CONF/4.xyz
***************************************


Your calculation utilizes empirical dispersion correction


Warning: RI is on but no J-basis has been assigned. Assigning Def2/J (nothing to worry about!)
================================================================================

----- Orbital basis set information -----
Your calculation utilizes the basis: 6-31G**
   H-He, Li-Ne : W. J. Hehre, R. Ditchfield and J.A. Pople, J. Chem. Phys. 56, 2257 (1972).
                 Note: He and Ne are unpublished basis sets taken from the Gaussian program.
                 Note: Li and B from J. D. Dill and J. A. Pople, J. Chem. Phys. 62, 2921 (1975).
   Na - Ar     : M. M. Francl, W. J. Pietro, W. J. Hehre, J. S. Binkley, M. S. Gordon, 
                 D. J. DeFrees and J. A. Pople, J. Chem. Phys. 77, 3654 (1982).
   K - Zn      : V. A. Rassolov, J. A. Pople, M. A. Ratner, and T. L. Windus, J. Chem. Phys. 109, 1223 (1998).

----- AuxJ basis set information -----
Your calculation utilizes the auxiliary basis: def2/J
   H-Rn: F. Weigend, Phys. Chem. Chem. Phys. 8, 1057 (2006).
   Fr-Lr: K. Eichkorn, F. Weigend, O. Treutler, R. Ahlrichs; Theor. Chem. Acc. 97, 119 (1997).

================================================================================
                                        WARNINGS
                       Please study these warnings very carefully!
================================================================================


WARNING: Geometry Optimization
  ===> : Switching off AutoStart
         For restart on a previous wavefunction, please use MOREAD

INFO   : The exchange functional is Grimme's B97(-D)
         As described in S. Grimme, J. Comput. Chem. 27, 1787 (2006).
         Note that this functional defaults to a pure GGA. 

INFO   : The correlation functional is Grimme's B97(-D)
         As described in S. Grimme, J. Comput. Chem. 27, 1787 (2006).

================================================================================
                                       INPUT FILE
================================================================================
NAME = 4.inp
|  1> ! B97-D 6-31G** opt
|  2> 
|  3> * xyzfile 0 1 /home/vivek/mm-project/vivek/xtb-goat/xtb-goat/l/L_CONF/4.xyz
|  4> 
|  5>                          ****END OF INPUT****
================================================================================

                       *****************************
                       * Geometry Optimization Run *
                       *****************************

Geometry optimization settings:
Update method            Update   .... BFGS
Choice of coordinates    CoordSys .... (2022) Redundant Internals
Initial Hessian          InHess   .... Almloef's Model
Max. no of cycles        MaxIter  .... 66

Convergence Tolerances:
Energy Change            TolE     ....  5.0000e-06 Eh
Max. Gradient            TolMAXG  ....  3.0000e-04 Eh/bohr
RMS Gradient             TolRMSG  ....  1.0000e-04 Eh/bohr
Max. Displacement        TolMAXD  ....  4.0000e-03 bohr
RMS Displacement         TolRMSD  ....  2.0000e-03 bohr
Strict Convergence                .... False

------------------------------------------------------------------------------
                        ORCA OPTIMIZATION COORDINATE SETUP
------------------------------------------------------------------------------

The optimization will be done in redundant internal coordinates (2022)
Making redundant internal coordinates   ...  (2022 redundants) done
Evaluating the initial hessian          ...  (Almloef) done
Evaluating the coordinates              ...  done
Calculating the B-matrix                .... done
Calculating the G-matrix                .... done
The number of degrees of freedom        ....   94

    -----------------------------------------------------------------
                    Redundant Internal Coordinates


    -----------------------------------------------------------------
         Definition                    Initial Value    Approx d2E/dq
    -----------------------------------------------------------------
      1. B(C   1,C   0)                  1.5218         0.385014   
      2. B(C   4,C   0)                  1.5395         0.360725   
      3. B(H   5,C   0)                  1.0931         0.356022   
      4. B(N   7,H   3)                  1.0161         0.423187   
      5. B(N   7,C   0)                  1.4519         0.445759   
      6. B(N   7,H   2)                  1.0149         0.424974   
      7. B(C   8,C   4)                  1.5314         0.371722   
      8. B(H   9,C   4)                  1.0914         0.358189   
      9. B(H  10,C   4)                  1.0932         0.355951   
     10. B(C  11,C   8)                  1.5268         0.378024   
     11. B(H  12,C  11)                  1.0864         0.364892   
     12. B(C  13,C   8)                  1.5283         0.375966   
     13. B(C  13,H   6)                  1.0878         0.362961   
     14. B(H  14,C  11)                  1.0877         0.363120   
     15. B(H  15,C  11)                  1.0876         0.363300   
     16. B(H  16,C   8)                  1.0947         0.353876   
     17. B(H  17,C  13)                  1.0877         0.363222   
     18. B(H  18,C  13)                  1.0874         0.363492   
     19. B(O  19,C   1)                  1.3378         0.677979   
     20. B(H  20,O  19)                  0.9713         0.498885   
     21. B(O  21,C   1)                  1.2037         1.109599   
     22. A(C   4,C   0,N   7)          108.4600         0.369959   
     23. A(C   1,C   0,H   5)          108.8029         0.325321   
     24. A(H   5,C   0,N   7)          108.5979         0.331278   
     25. A(C   4,C   0,H   5)          110.0793         0.321861   
     26. A(C   1,C   0,N   7)          111.9361         0.374134   
     27. A(C   1,C   0,C   4)          108.9563         0.363051   
     28. A(C   0,C   1,O  21)          124.3297         0.439504   
     29. A(C   0,C   1,O  19)          113.0537         0.402522   
     30. A(O  19,C   1,O  21)          122.6158         0.484117   
     31. A(H   9,C   4,H  10)          107.6652         0.290068   
     32. A(C   0,C   4,H  10)          107.8669         0.321850   
     33. A(C   8,C   4,H   9)          109.5549         0.323771   
     34. A(C   0,C   4,H   9)          106.7442         0.322181   
     35. A(C   0,C   4,C   8)          115.2692         0.360881   
     36. A(C   8,C   4,H  10)          109.4595         0.323438   
     37. A(C   0,N   7,H   2)          110.4601         0.338244   
     38. A(H   2,N   7,H   3)          107.0395         0.301313   
     39. A(C   0,N   7,H   3)          109.1742         0.338007   
     40. A(C  13,C   8,H  16)          108.4295         0.323731   
     41. A(C   4,C   8,H  16)          109.1550         0.323128   
     42. A(C  11,C   8,H  16)          108.4177         0.324021   
     43. A(C  11,C   8,C  13)          109.8766         0.364485   
     44. A(C   4,C   8,C  13)          109.2346         0.363439   
     45. A(C   4,C   8,C  11)          111.6642         0.363778   
     46. A(H  14,C  11,H  15)          108.4412         0.291627   
     47. A(H  12,C  11,H  15)          107.8878         0.291850   
     48. A(C   8,C  11,H  15)          110.1334         0.325423   
     49. A(H  12,C  11,H  14)          108.6436         0.291827   
     50. A(C   8,C  11,H  14)          110.4020         0.325397   
     51. A(C   8,C  11,H  12)          111.2472         0.325657   
     52. A(H   6,C  13,H  18)          108.3746         0.291631   
     53. A(C   8,C  13,H  17)          110.8769         0.325120   
     54. A(H   6,C  13,H  17)          108.4099         0.291597   
     55. A(H   6,C  13,C   8)          110.3005         0.325081   
     56. A(H  17,C  13,H  18)          108.2901         0.291664   
     57. A(C   8,C  13,H  18)          110.5100         0.325160   
     58. A(C   1,O  19,H  20)          110.5863         0.373189   
     59. D(O  19,C   1,C   0,H   5)     30.8234         0.011044   
     60. D(O  21,C   1,C   0,H   5)   -148.8523         0.011044   
     61. D(O  21,C   1,C   0,C   4)     91.1200         0.011044   
     62. D(O  19,C   1,C   0,N   7)    150.8448         0.011044   
     63. D(O  19,C   1,C   0,C   4)    -89.2043         0.011044   
     64. D(C   8,C   4,C   0,C   1)     70.5638         0.010437   
     65. D(C   8,C   4,C   0,H   5)    -48.6718         0.010437   
     66. D(H   9,C   4,C   0,H   5)     73.2344         0.010437   
     67. D(H   9,C   4,C   0,N   7)    -45.4515         0.010437   
     68. D(C   8,C   4,C   0,N   7)   -167.3577         0.010437   
     69. D(H   9,C   4,C   0,C   1)   -167.5299         0.010437   
     70. D(H   2,N   7,C   0,H   5)     58.5587         0.016947   
     71. D(H   2,N   7,C   0,C   4)    178.1767         0.016947   
     72. D(H   3,N   7,C   0,C   1)     55.8606         0.016947   
     73. D(H   2,N   7,C   0,C   1)    -61.5824         0.016947   
     74. D(H   3,N   7,C   0,C   4)    -64.3803         0.016947   
     75. D(C  13,C   8,C   4,H  10)    -47.9777         0.011040   
     76. D(C  13,C   8,C   4,H   9)     69.8645         0.011040   
     77. D(C  13,C   8,C   4,C   0)   -169.7542         0.011040   
     78. D(C  11,C   8,C   4,H  10)   -169.7176         0.011040   
     79. D(C  11,C   8,C   4,H   9)    -51.8754         0.011040   
     80. D(C  11,C   8,C   4,C   0)     68.5059         0.011040   
     81. D(H  14,C  11,C   8,H  16)    176.8081         0.011396   
     82. D(H  14,C  11,C   8,C  13)    -64.8520         0.011396   
     83. D(H  14,C  11,C   8,C   4)     56.5165         0.011396   
     84. D(H  12,C  11,C   8,H  16)     56.1064         0.011396   
     85. D(H  12,C  11,C   8,C  13)    174.4463         0.011396   
     86. D(H  12,C  11,C   8,C   4)    -64.1852         0.011396   
     87. D(H   6,C  13,C   8,H  16)   -179.6276         0.011279   
     88. D(H   6,C  13,C   8,C  11)     62.0397         0.011279   
     89. D(H   6,C  13,C   8,C   4)    -60.7736         0.011279   
     90. D(H  17,C  13,C   8,H  16)    -59.5299         0.011279   
     91. D(H  17,C  13,C   8,C  11)   -177.8626         0.011279   
     92. D(H  17,C  13,C   8,C   4)     59.3241         0.011279   
     93. D(H  20,O  19,C   1,O  21)     -1.3992         0.034218   
     94. D(H  20,O  19,C   1,C   0)    178.9187         0.034218   
    -----------------------------------------------------------------

Number of atoms                         .... 22
Number of degrees of freedom            .... 94


         *************************************************************
         *                GEOMETRY OPTIMIZATION CYCLE   1            *
         *************************************************************
---------------------------------
CARTESIAN COORDINATES (ANGSTROEM)
---------------------------------
  C     -8.953312    6.308197   -2.521592
  C     -9.246996    7.240799   -1.355466
  H     -7.814003    7.608528   -3.607585
  H     -6.964231    6.698261   -2.551146
  C     -8.796880    4.872961   -1.987016
  H     -9.784895    6.356475   -3.229410
  H     -9.242007    2.226309   -1.442083
  N     -7.732317    6.675812   -3.215910
  C    -10.088633    4.214551   -1.494154
  H     -8.371061    4.279895   -2.798318
  H     -8.066506    4.895636   -1.173980
  C    -11.049602    3.927297   -2.645272
  H    -11.384760    4.846708   -3.117098
  C     -9.745595    2.914861   -0.767024
  H    -10.566389    3.306902   -3.396780
  H    -11.927596    3.401212   -2.277554
  H    -10.586737    4.885639   -0.787045
  H     -9.090776    3.105893    0.080149
  H    -10.648970    2.434530   -0.398596
  O    -10.553998    7.360049   -1.096364
  H    -10.699395    7.948206   -0.337233
  O     -8.404534    7.824089   -0.723934

----------------------------
CARTESIAN COORDINATES (A.U.)
----------------------------
  NO LB      ZA    FRAG     MASS         X           Y           Z
   0 C     6.0000    0    12.011  -16.919307   11.920765   -4.765118
   1 C     6.0000    0    12.011  -17.474289   13.683127   -2.561460
   2 H     1.0000    0     1.008  -14.766326   14.378033   -6.817348
   3 H     1.0000    0     1.008  -13.160489   12.657878   -4.820968
   4 C     6.0000    0    12.011  -16.623694    9.208561   -3.754915
   5 H     1.0000    0     1.008  -18.490772   12.011997   -6.102700
   6 H     1.0000    0     1.008  -17.464862    4.207115   -2.725141
   7 N     7.0000    0    14.007  -14.611961   12.615456   -6.077189
   8 C     6.0000    0    12.011  -19.064753    7.964347   -2.823541
   9 H     1.0000    0     1.008  -15.819012    8.087830   -5.288055
  10 H     1.0000    0     1.008  -15.243487    9.251411   -2.218501
  11 C     6.0000    0    12.011  -20.880722    7.421515   -4.998839
  12 H     1.0000    0     1.008  -21.514078    9.158951   -5.890461
  13 C     6.0000    0    12.011  -18.416506    5.508288   -1.449465
  14 H     1.0000    0     1.008  -19.967581    6.249139   -6.418984
  15 H     1.0000    0     1.008  -22.539891    6.427359   -4.303954
  16 H     1.0000    0     1.008  -20.006034    9.232520   -1.487300
  17 H     1.0000    0     1.008  -17.179077    5.869287    0.151459
  18 H     1.0000    0     1.008  -20.123637    4.600596   -0.753238
  19 O     8.0000    0    15.999  -19.944166   13.908476   -2.071827
  20 H     1.0000    0     1.008  -20.218926   15.019932   -0.637278
  21 O     8.0000    0    15.999  -15.882268   14.785386   -1.368036

--------------------------------
INTERNAL COORDINATES (ANGSTROEM)
--------------------------------
 C      0   0   0     0.000000000000     0.00000000     0.00000000
 C      1   0   0     1.521789997209     0.00000000     0.00000000
 H      1   2   0     2.041632735078    97.17970730     0.00000000
 H      3   1   2     1.633021956586    65.87376383    89.83440151
 C      1   2   3     1.539527976850   108.95627942   144.33574750
 H      1   2   3     1.093100617814   108.80285840   264.36347707
 H      5   1   2     2.738586020367   162.46623488   110.25870606
 N      3   1   2     1.014909268846    41.78134122   124.68684056
 C      5   1   2     1.531353055278   115.26915043    70.56381663
 H      5   1   2     1.091448801061   106.74420235   192.47006046
 H      5   1   2     1.093154574711   107.86692180   307.93320692
 C      9   5   1     1.526777407944   111.66420358    68.50590591
 H     12   9   5     1.086401578805   111.24723347   295.81477614
 C      7   5   1     1.087845619004    65.60783765   275.82408564
 H     12   9   5     1.087726952277   110.40196339    56.51652749
 H     12   9   5     1.087591728630   110.13341957   176.24060628
 H      9   5   1     1.094746273611   109.15504218   308.64747450
 H     14   7   5     1.087650049036   108.40985646   268.81871756
 H     14   7   5     1.087447749359   108.37458353   151.49069300
 O      2   1   3     1.337762833488   113.05370068   126.45995438
 H     20   2   1     0.971261309159   110.58634393   178.91871021
 O      2   1   3     1.203661756253   124.32969042   306.78425621

---------------------------
INTERNAL COORDINATES (A.U.)
---------------------------
 C      0   0   0     0.000000000000     0.00000000     0.00000000
 C      1   0   0     2.875766328067     0.00000000     0.00000000
 H      1   2   0     3.858126735347    97.17970730     0.00000000
 H      3   1   2     3.085964268627    65.87376383    89.83440151
 C      1   2   3     2.909286251755   108.95627942   144.33574750
 H      1   2   3     2.065660804489   108.80285840   264.36347707
 H      5   1   2     5.175177572679   162.46623488   110.25870606
 N      3   1   2     1.917900568897    41.78134122   124.68684056
 C      5   1   2     2.893837888818   115.26915043    70.56381663
 H      5   1   2     2.062539323202   106.74420235   192.47006046
 H      5   1   2     2.065762768247   107.86692180   307.93320692
 C      9   5   1     2.885191168473   111.66420358    68.50590591
 H     12   9   5     2.053001455401   111.24723347   295.81477614
 C      7   5   1     2.055730295904    65.60783765   275.82408564
 H     12   9   5     2.055506048288   110.40196339    56.51652749
 H     12   9   5     2.055250512629   110.13341957   176.24060628
 H      9   5   1     2.068770643255   109.15504218   308.64747450
 H     14   7   5     2.055360722224   108.40985646   268.81871756
 H     14   7   5     2.054978431238   108.37458353   151.49069300
 O      2   1   3     2.528005387431   113.05370068   126.45995438
 H     20   2   1     1.835417878785   110.58634393   178.91871021
 O      2   1   3     2.274591077193   124.32969042   306.78425621

---------------------
BASIS SET INFORMATION
---------------------
There are 4 groups of distinct atoms

 Group   1 Type C   : 10s4p1d contracted to 3s2p1d pattern {631/31/1}
 Group   2 Type H   : 4s1p contracted to 2s1p pattern {31/1}
 Group   3 Type N   : 10s4p1d contracted to 3s2p1d pattern {631/31/1}
 Group   4 Type O   : 10s4p1d contracted to 3s2p1d pattern {631/31/1}

Atom   0C    basis set group =>   1
Atom   1C    basis set group =>   1
Atom   2H    basis set group =>   2
Atom   3H    basis set group =>   2
Atom   4C    basis set group =>   1
Atom   5H    basis set group =>   2
Atom   6H    basis set group =>   2
Atom   7N    basis set group =>   3
Atom   8C    basis set group =>   1
Atom   9H    basis set group =>   2
Atom  10H    basis set group =>   2
Atom  11C    basis set group =>   1
Atom  12H    basis set group =>   2
Atom  13C    basis set group =>   1
Atom  14H    basis set group =>   2
Atom  15H    basis set group =>   2
Atom  16H    basis set group =>   2
Atom  17H    basis set group =>   2
Atom  18H    basis set group =>   2
Atom  19O    basis set group =>   4
Atom  20H    basis set group =>   2
Atom  21O    basis set group =>   4
---------------------------------
AUXILIARY/J BASIS SET INFORMATION
---------------------------------
There are 4 groups of distinct atoms

 Group   1 Type C   : 12s5p4d2f1g contracted to 6s4p3d1f1g pattern {711111/2111/211/2/1}
 Group   2 Type H   : 5s2p1d contracted to 3s1p1d pattern {311/2/1}
 Group   3 Type N   : 12s5p4d2f1g contracted to 6s4p3d1f1g pattern {711111/2111/211/2/1}
 Group   4 Type O   : 12s5p4d2f1g contracted to 6s4p3d1f1g pattern {711111/2111/211/2/1}

Atom   0C    basis set group =>   1
Atom   1C    basis set group =>   1
Atom   2H    basis set group =>   2
Atom   3H    basis set group =>   2
Atom   4C    basis set group =>   1
Atom   5H    basis set group =>   2
Atom   6H    basis set group =>   2
Atom   7N    basis set group =>   3
Atom   8C    basis set group =>   1
Atom   9H    basis set group =>   2
Atom  10H    basis set group =>   2
Atom  11C    basis set group =>   1
Atom  12H    basis set group =>   2
Atom  13C    basis set group =>   1
Atom  14H    basis set group =>   2
Atom  15H    basis set group =>   2
Atom  16H    basis set group =>   2
Atom  17H    basis set group =>   2
Atom  18H    basis set group =>   2
Atom  19O    basis set group =>   4
Atom  20H    basis set group =>   2
Atom  21O    basis set group =>   4
------------------------------------------------------------------------------
                             ORCA STARTUP CALCULATIONS
                           -- RI-GTO INTEGRALS CHOSEN --
------------------------------------------------------------------------------
------------------------------------------------------------------------------
                   ___                                                        
                  /   \      - P O W E R E D   B Y -                         
                 /     \                                                     
                 |  |  |   _    _      __       _____    __    __             
                 |  |  |  | |  | |    /  \     |  _  \  |  |  /  |          
                  \  \/   | |  | |   /    \    | | | |  |  | /  /          
                 / \  \   | |__| |  /  /\  \   | |_| |  |  |/  /          
                |  |  |   |  __  | /  /__\  \  |    /   |      \           
                |  |  |   | |  | | |   __   |  |    \   |  |\   \          
                \     /   | |  | | |  |  |  |  | |\  \  |  | \   \       
                 \___/    |_|  |_| |__|  |__|  |_| \__\ |__|  \__/        
                                                                              
                      - O R C A' S   B I G   F R I E N D -                    
                                      &                                       
                       - I N T E G R A L  F E E D E R -                       
                                                                              
 v1 FN, 2020, v2 2021, v3 2022-2024                                           
------------------------------------------------------------------------------


----------------------
SHARK INTEGRAL PACKAGE
----------------------

Number of atoms                             ...     22
Number of basis functions                   ...    191
Number of shells                            ...     93
Maximum angular momentum                    ...      2
Integral batch strategy                     ... SHARK/LIBINT Hybrid
RI-J (if used) integral strategy            ... SPLIT-RIJ (Revised 2003 algorithm where possible)
Printlevel                                  ...      1
Contraction scheme used                     ... SEGMENTED contraction
Prescreening option                         ... SCHWARTZ
   Thresh                                   ... 2.500e-11
   Tcut                                     ... 2.500e-12
   Tpresel                                  ... 2.500e-12 
Coulomb Range Separation                    ... NOT USED
Exchange Range Separation                   ... NOT USED
Multipole approximations                    ... NOT USED
Finite Nucleus Model                        ... NOT USED
CABS basis                                  ... NOT available
Auxiliary Coulomb fitting basis             ... AVAILABLE
   # of basis functions in Aux-J            ...    584
   # of shells in Aux-J                     ...    200
   Maximum angular momentum in Aux-J        ...      4
Auxiliary J/K fitting basis                 ... NOT available
Auxiliary Correlation fitting basis         ... NOT available
Auxiliary 'external' fitting basis          ... NOT available

Checking pre-screening integrals            ... done (  0.0 sec) Dimension = 93
   => SHARK Basis and OBASIS are compatible. Storing Pre-screening
Shell pair information
Shell pair cut-off parameter TPreSel        ...   2.5e-12
Total number of shell pairs                 ...      4371
Shell pairs after pre-screening             ...      3919
Total number of primitive shell pairs       ...     20328
Primitive shell pairs kept                  ...     12171
          la=0 lb=0:   1294 shell pairs
          la=1 lb=0:   1467 shell pairs
          la=1 lb=1:    439 shell pairs
          la=2 lb=0:    429 shell pairs
          la=2 lb=1:    248 shell pairs
          la=2 lb=2:     42 shell pairs

Checking whether 4 symmetric matrices of dimension 191 fit in memory
:Max Core in MB      =   4096.00
 MB in use           =      8.63
 MB left             =   4087.37
 MB needed           =      0.56
 Data fit in memory  = YES
Calculating RI/J V-Matrix + Cholesky decomp.... done (  0.0 sec)
Calculating Nuclear repulsion               ... done (  0.0 sec) ENN=    488.232793950999 Eh

Diagonalization of the overlap matrix:
Smallest eigenvalue                        ... 3.019e-03
Time for diagonalization                   ...    0.002 sec
Threshold for overlap eigenvalues          ... 1.000e-07
Number of eigenvalues below threshold      ... 0
Time for construction of square roots      ...    0.001 sec
Total time needed                          ...    0.003 sec

-------------------
DFT GRID GENERATION
-------------------

General Integration Accuracy     IntAcc      ... 4.388
Radial Grid Type                 RadialGrid  ... OptM3 with GC (2021)
Angular Grid (max. ang.)         AngularGrid ... 4 (Lebedev-302)
Angular grid pruning method      GridPruning ... 4 (adaptive)
Weight generation scheme         WeightScheme... mBecke (2022)
Basis function cutoff            BFCut       ... 1.0000e-11
Integration weight cutoff        WCut        ... 1.0000e-14
Partially contracted basis set               ... off
Rotationally invariant grid construction     ... off
Angular grids for H and He will be reduced by one unit

Total number of grid points                  ...    95658
Total number of batches                      ...     1506
Average number of points per batch           ...       63
Average number of grid points per atom       ...     4348
Grids setup in   0.4 sec
Initializing property integral containers    ... done (  0.0 sec)

SHARK setup successfully completed in   0.5 seconds

Maximum memory used throughout the entire STARTUP-calculation: 40.7 MB
-------------------------------------------------------------------------------
                                 ORCA GUESS
                   Start orbitals & Density for SCF / CASSCF
-------------------------------------------------------------------------------

------------
SCF SETTINGS
------------
Hamiltonian:
 Density Functional     Method          .... DFT(GTOs)
 Exchange Functional    Exchange        .... B97(D)
 Correlation Functional Correlation     .... B97(D)
 Gradients option       PostSCFGGA      .... off
 RI-approximation to the Coulomb term is turned on
   Number of AuxJ basis functions       .... 584


General Settings:
 Integral files         IntName         .... 4
 Hartree-Fock type      HFTyp           .... RHF
 Total Charge           Charge          ....    0
 Multiplicity           Mult            ....    1
 Number of Electrons    NEL             ....   72
 Basis Dimension        Dim             ....  191
 Nuclear Repulsion      ENuc            ....    488.2327939510 Eh

Convergence Acceleration:
 AO-DIIS                CNVDIIS         .... on
   Start iteration      DIISMaxIt       ....    12
   Startup error        DIISStart       ....  0.200000
   # of expansion vecs  DIISMaxEq       ....     5
   Bias factor          DIISBfac        ....   1.050
   Max. coefficient     DIISMaxC        ....  10.000
 MO-DIIS                CNVKDIIS        .... off
 Trust-Rad. Augm. Hess. CNVTRAH         .... auto
   Auto Start mean grad. ratio tolernc. ....  1.125000
   Auto Start start iteration           ....    50
   Auto Start num. interpolation iter.  ....    10
   Max. Number of Micro iterations      ....    24
   Max. Number of Macro iterations      .... Maxiter - #DIIS iter
   Number of Davidson start vectors     ....     2
   Converg. threshold    (grad. norm)   ....   1.000e-05
   Grad. Scal. Fac. for Micro threshold ....   0.100
   Minimum threshold for Micro iter.    ....   1.000e-02
   NR start threshold (gradient norm)   ....   1.000e-04
   Initial trust radius                 ....   0.400
   Minimum AH scaling param. (alpha)    ....   1.000
   Maximum AH scaling param. (alpha)    .... 1000.000
   Quad. conv. algorithm                .... NR
   White noise on init. David. guess    .... on
   Maximum white noise                  ....   0.010
   Pseudo random numbers                .... off
   Inactive MOs                         .... canonical
   Orbital update algorithm             .... Taylor
   Preconditioner                       .... Diag
   Full preconditioner red. dimension   ....   250
 SOSCF                 CNVSOSCF           .... on
   Start iteration     SOSCFMaxIt         ....   150
   Startup grad/error  SOSCFStart         ....  0.003300
   Hessian update      SOSCFHessUp        .... L-BFGS
   Autom. constraints  SOSCFAutoConstrain .... off
 Level Shifting         CNVShift        .... on
   Level shift para.    LevelShift      ....    0.2500
   Turn off err/grad.   ShiftErr        ....    0.0010
 Zerner damping         CNVZerner       .... off
 Static damping         CNVDamp         .... on
   Fraction old density DampFac         ....    0.7000
   Max. Damping (<1)    DampMax         ....    0.9800
   Min. Damping (>=0)   DampMin         ....    0.0000
   Turn off err/grad.   DampErr         ....    0.1000

SCF Procedure:
 Maximum # iterations   MaxIter         ....   125
 SCF integral mode      SCFMode         .... Direct
   Integral package                     .... SHARK and LIBINT hybrid scheme
 Reset frequency        DirectResetFreq ....    20
 Integral Threshold     Thresh          ....  2.500e-11 Eh
 Primitive CutOff       TCut            ....  2.500e-12 Eh

Convergence Tolerance:
 Convergence Check Mode ConvCheckMode   .... Total+1el-Energy
 Convergence forced     ConvForced      .... 0
 Energy Change          TolE            ....  1.000e-08 Eh
 1-El. energy change                    ....  1.000e-05 Eh
 Orbital Gradient       TolG            ....  1.000e-05
 Orbital Rotation angle TolX            ....  1.000e-05
 DIIS Error             TolErr          ....  5.000e-07

------------------------------
INITIAL GUESS: MODEL POTENTIAL
------------------------------
Loading Hartree-Fock densities                     ... done
Calculating cut-offs                               ... done
Initializing the effective Hamiltonian             ... done
Setting up the integral package (SHARK)            ... done
Starting the Coulomb interaction                   ... done (   0.1 sec)
Making the grid                                    ... done (   0.1 sec)
Mapping shells                                     ... done
Starting the XC term evaluation                    ... done (   0.1 sec)
  promolecular density results
     # of electrons  =     72.001375903
     EX              =    -56.845878987
     EC              =     -3.118122753
     EX+EC           =    -59.964001740
Transforming the Hamiltonian                       ... done (   0.0 sec)
Diagonalizing the Hamiltonian                      ... done (   0.0 sec)
Back transforming the eigenvectors                 ... done (   0.0 sec)
Now organizing SCF variables                       ... done
                      ------------------
                      INITIAL GUESS DONE (   0.3 sec)
                      ------------------
             **** ENERGY FILE WAS UPDATED (4.en.tmp) ****
Finished Guess after   0.3 sec
Maximum memory used throughout the entire GUESS-calculation: 13.7 MB

-------------------------------------------------------------------------------------------
                                      ORCA LEAN-SCF
                              memory conserving SCF solver
-------------------------------------------------------------------------------------------

----------------------------------------D-I-I-S--------------------------------------------
Iteration    Energy (Eh)           Delta-E    RMSDP     MaxDP     DIISErr   Damp  Time(sec)
-------------------------------------------------------------------------------------------
               ***  Starting incremental Fock matrix formation  ***
    1    -441.0183168891853143     0.00e+00  3.53e-03  1.01e-01  2.52e-01  0.700   0.6
    2    -441.1968087975130288    -1.78e-01  2.34e-03  5.11e-02  9.66e-02  0.700   0.5
                               ***Turning on AO-DIIS***
    3    -441.2528742087848173    -5.61e-02  9.05e-04  1.64e-02  2.62e-02  0.700   0.5
    4    -441.2886426563055124    -3.58e-02  1.19e-03  1.85e-02  9.13e-03  0.000   0.5
    5    -441.3712763203951113    -8.26e-02  4.09e-04  8.28e-03  9.54e-03  0.000   0.5
                              *** Initializing SOSCF ***
---------------------------------------S-O-S-C-F--------------------------------------
Iteration    Energy (Eh)           Delta-E    RMSDP     MaxDP     MaxGrad    Time(sec)
--------------------------------------------------------------------------------------
    6    -441.3721825785267470    -9.06e-04  1.47e-04  2.93e-03  3.08e-03     0.5
               *** Restarting incremental Fock matrix formation ***
    7    -441.3722489726038134    -6.64e-05  1.25e-04  3.82e-03  8.23e-04     0.6
    8    -441.3722178872141626     3.11e-05  6.83e-05  2.82e-03  2.34e-03     0.5
    9    -441.3722586553668066    -4.08e-05  4.38e-05  7.84e-04  2.13e-04     0.5
   10    -441.3722564250953724     2.23e-06  2.52e-05  5.39e-04  2.45e-04     0.5
   11    -441.3722603557648085    -3.93e-06  6.55e-06  2.18e-04  3.03e-05     0.5
   12    -441.3722602768204410     7.89e-08  3.91e-06  1.42e-04  4.99e-05     0.4
   13    -441.3722604037362203    -1.27e-07  7.92e-07  2.17e-05  4.20e-06     0.4
   14    -441.3722604024750922     1.26e-09  4.51e-07  1.24e-05  5.57e-06     0.4
                 **** Energy Check signals convergence ****

               *****************************************************
               *                     SUCCESS                       *
               *           SCF CONVERGED AFTER  14 CYCLES          *
               *****************************************************

             **** ENERGY FILE WAS UPDATED (4.en.tmp) ****

----------------
TOTAL SCF ENERGY
----------------

Total Energy       :       -441.37226040495767 Eh          -12010.34980 eV

Components:
Nuclear Repulsion  :        488.23279395099854 Eh           13285.48974 eV
Electronic Energy  :       -929.60505435595621 Eh          -25295.83954 eV
One Electron Energy:      -1568.43238134630042 Eh          -42679.21487 eV
Two Electron Energy:        638.82732699034420 Eh           17383.37532 eV

Virial components:
Potential Energy   :       -880.48315622800783 Eh          -23959.16474 eV
Kinetic Energy     :        439.11089582305016 Eh           11948.81494 eV
Virial Ratio       :          2.00514987125899

DFT components:
N(Alpha)           :       36.000121441219 electrons
N(Beta)            :       36.000121441219 electrons
N(Total)           :       72.000242882438 electrons
E(X)               :      -58.276421609623 Eh       
E(C)               :       -3.114470376210 Eh       
E(XC)              :      -61.390891985833 Eh       

---------------
SCF CONVERGENCE
---------------

  Last Energy change         ...   -1.2611e-09  Tolerance :   1.0000e-08
  Last MAX-Density change    ...    1.2419e-05  Tolerance :   1.0000e-07
  Last RMS-Density change    ...    4.5105e-07  Tolerance :   5.0000e-09
  Last DIIS Error            ...    3.0824e-03  Tolerance :   5.0000e-07
  Last Orbital Gradient      ...    5.5737e-06  Tolerance :   1.0000e-05
  Last Orbital Rotation      ...    5.7608e-06  Tolerance :   1.0000e-05


----------------
ORBITAL ENERGIES
----------------

  NO   OCC          E(Eh)            E(eV) 
   0   2.0000     -18.815470      -511.9950 
   1   2.0000     -18.752682      -510.2864 
   2   2.0000     -13.985328      -380.5601 
   3   2.0000     -10.026395      -272.8321 
   4   2.0000      -9.944211      -270.5957 
   5   2.0000      -9.907445      -269.5953 
   6   2.0000      -9.904005      -269.5017 
   7   2.0000      -9.890881      -269.1445 
   8   2.0000      -9.890506      -269.1344 
   9   2.0000      -1.021063       -27.7845 
  10   2.0000      -0.931262       -25.3409 
  11   2.0000      -0.813871       -22.1465 
  12   2.0000      -0.733894       -19.9703 
  13   2.0000      -0.662601       -18.0303 
  14   2.0000      -0.615659       -16.7529 
  15   2.0000      -0.602441       -16.3933 
  16   2.0000      -0.537184       -14.6175 
  17   2.0000      -0.500161       -13.6101 
  18   2.0000      -0.461953       -12.5704 
  19   2.0000      -0.429917       -11.6986 
  20   2.0000      -0.420965       -11.4550 
  21   2.0000      -0.408219       -11.1082 
  22   2.0000      -0.394862       -10.7447 
  23   2.0000      -0.384557       -10.4643 
  24   2.0000      -0.370058       -10.0698 
  25   2.0000      -0.356436        -9.6991 
  26   2.0000      -0.338803        -9.2193 
  27   2.0000      -0.334075        -9.0907 
  28   2.0000      -0.320624        -8.7246 
  29   2.0000      -0.311324        -8.4716 
  30   2.0000      -0.287022        -7.8103 
  31   2.0000      -0.280202        -7.6247 
  32   2.0000      -0.276940        -7.5359 
  33   2.0000      -0.267591        -7.2815 
  34   2.0000      -0.225019        -6.1231 
  35   2.0000      -0.193873        -5.2755 
  36   0.0000      -0.017046        -0.4638 
  37   0.0000       0.050425         1.3721 
  38   0.0000       0.073945         2.0122 
  39   0.0000       0.079925         2.1749 
  40   0.0000       0.097026         2.6402 
  41   0.0000       0.114179         3.1070 
  42   0.0000       0.122930         3.3451 
  43   0.0000       0.133434         3.6309 
  44   0.0000       0.152063         4.1379 
  45   0.0000       0.155195         4.2231 
  46   0.0000       0.158432         4.3112 
*Only the first 10 virtual orbitals were printed.

                    ********************************
                    * MULLIKEN POPULATION ANALYSIS *
                    ********************************

-----------------------
MULLIKEN ATOMIC CHARGES
-----------------------
   0 C :   -0.047549
   1 C :    0.493134
   2 H :    0.239165
   3 H :    0.246688
   4 C :   -0.174688
   5 H :    0.122732
   6 H :    0.105112
   7 N :   -0.555754
   8 C :   -0.079859
   9 H :    0.119261
  10 H :    0.100813
  11 C :   -0.320573
  12 H :    0.108344
  13 C :   -0.319984
  14 H :    0.105952
  15 H :    0.104184
  16 H :    0.103790
  17 H :    0.103895
  18 H :    0.102519
  19 O :   -0.451032
  20 H :    0.315526
  21 O :   -0.421675
Sum of atomic charges:    0.0000000

--------------------------------
MULLIKEN REDUCED ORBITAL CHARGES
--------------------------------
  0 C s       :     3.198397  s :     3.198397
      pz      :     0.916460  p :     2.791858
      px      :     0.913095
      py      :     0.962304
      dz2     :     0.007841  d :     0.057294
      dxz     :     0.016408
      dyz     :     0.011994
      dx2y2   :     0.012132
      dxy     :     0.008919

  1 C s       :     2.989278  s :     2.989278
      pz      :     0.854846  p :     2.393058
      px      :     0.700764
      py      :     0.837448
      dz2     :     0.022584  d :     0.124530
      dxz     :     0.027218
      dyz     :     0.013297
      dx2y2   :     0.035837
      dxy     :     0.025594

  2 H s       :     0.736950  s :     0.736950
      pz      :     0.008218  p :     0.023885
      px      :     0.004504
      py      :     0.011162

  3 H s       :     0.729394  s :     0.729394
      pz      :     0.008801  p :     0.023918
      px      :     0.008923
      py      :     0.006194

  4 C s       :     3.236185  s :     3.236185
      pz      :     1.023940  p :     2.902536
      px      :     0.968619
      py      :     0.909977
      dz2     :     0.003733  d :     0.035966
      dxz     :     0.010643
      dyz     :     0.007594
      dx2y2   :     0.008243
      dxy     :     0.005753

  5 H s       :     0.866181  s :     0.866181
      pz      :     0.003971  p :     0.011087
      px      :     0.004702
      py      :     0.002414

  6 H s       :     0.883279  s :     0.883279
      pz      :     0.003961  p :     0.011610
      px      :     0.003479
      py      :     0.004170

  7 N s       :     3.593894  s :     3.593894
      pz      :     1.446239  p :     3.933169
      px      :     1.113834
      py      :     1.373096
      dz2     :     0.003590  d :     0.028691
      dxz     :     0.010590
      dyz     :     0.002871
      dx2y2   :     0.009707
      dxy     :     0.001932

  8 C s       :     3.207353  s :     3.207353
      pz      :     0.955279  p :     2.828963
      px      :     0.927348
      py      :     0.946335
      dz2     :     0.005799  d :     0.043543
      dxz     :     0.010617
      dyz     :     0.010499
      dx2y2   :     0.007368
      dxy     :     0.009258

  9 H s       :     0.869083  s :     0.869083
      pz      :     0.004941  p :     0.011656
      px      :     0.003245
      py      :     0.003469

 10 H s       :     0.887518  s :     0.887518
      pz      :     0.004816  p :     0.011669
      px      :     0.004364
      py      :     0.002490

 11 C s       :     3.246993  s :     3.246993
      pz      :     0.995060  p :     3.043244
      px      :     1.007449
      py      :     1.040735
      dz2     :     0.003866  d :     0.030335
      dxz     :     0.007289
      dyz     :     0.008392
      dx2y2   :     0.004011
      dxy     :     0.006776

 12 H s       :     0.879922  s :     0.879922
      pz      :     0.003314  p :     0.011734
      px      :     0.003089
      py      :     0.005330

 13 C s       :     3.248793  s :     3.248793
      pz      :     1.021621  p :     3.040739
      px      :     1.035854
      py      :     0.983264
      dz2     :     0.003176  d :     0.030453
      dxz     :     0.008443
      dyz     :     0.007355
      dx2y2   :     0.004396
      dxy     :     0.007082

 14 H s       :     0.882460  s :     0.882460
      pz      :     0.004462  p :     0.011589
      px      :     0.003243
      py      :     0.003884

 15 H s       :     0.884192  s :     0.884192
      pz      :     0.002938  p :     0.011624
      px      :     0.005103
      py      :     0.003582

 16 H s       :     0.884399  s :     0.884399
      pz      :     0.004111  p :     0.011811
      px      :     0.003347
      py      :     0.004353

 17 H s       :     0.884502  s :     0.884502
      pz      :     0.004949  p :     0.011603
      px      :     0.004053
      py      :     0.002600

 18 H s       :     0.885895  s :     0.885895
      pz      :     0.003074  p :     0.011586
      px      :     0.005171
      py      :     0.003341

 19 O s       :     3.825401  s :     3.825401
      pz      :     1.531440  p :     4.602893
      px      :     1.438259
      py      :     1.633194
      dz2     :     0.003405  d :     0.022738
      dxz     :     0.004047
      dyz     :     0.004445
      dx2y2   :     0.006390
      dxy     :     0.004450

 20 H s       :     0.646609  s :     0.646609
      pz      :     0.016821  p :     0.037865
      px      :     0.007317
      py      :     0.013726

 21 O s       :     3.857682  s :     3.857682
      pz      :     1.508479  p :     4.535960
      px      :     1.567360
      py      :     1.460120
      dz2     :     0.005365  d :     0.028034
      dxz     :     0.006659
      dyz     :     0.003716
      dx2y2   :     0.005922
      dxy     :     0.006372



                     *******************************
                     * LOEWDIN POPULATION ANALYSIS *
                     *******************************

----------------------
LOEWDIN ATOMIC CHARGES
----------------------
   0 C :   -0.050364
   1 C :    0.102480
   2 H :    0.124906
   3 H :    0.127775
   4 C :   -0.111308
   5 H :    0.079170
   6 H :    0.067402
   7 N :   -0.243957
   8 C :   -0.074829
   9 H :    0.077413
  10 H :    0.068778
  11 C :   -0.196718
  12 H :    0.067610
  13 C :   -0.195307
  14 H :    0.067837
  15 H :    0.069527
  16 H :    0.066959
  17 H :    0.067523
  18 H :    0.067939
  19 O :   -0.138295
  20 H :    0.180413
  21 O :   -0.224957

-------------------------------
LOEWDIN REDUCED ORBITAL CHARGES
-------------------------------
  0 C s       :     2.880588  s :     2.880588
      pz      :     1.015276  p :     3.039872
      px      :     0.994851
      py      :     1.029744
      dz2     :     0.017085  d :     0.129904
      dxz     :     0.036705
      dyz     :     0.029236
      dx2y2   :     0.028230
      dxy     :     0.018648

  1 C s       :     2.858809  s :     2.858809
      pz      :     0.934696  p :     2.741606
      px      :     0.918775
      py      :     0.888135
      dz2     :     0.053214  d :     0.297104
      dxz     :     0.063297
      dyz     :     0.031891
      dx2y2   :     0.089797
      dxy     :     0.058905

  2 H s       :     0.796413  s :     0.796413
      pz      :     0.024210  p :     0.078682
      px      :     0.011954
      py      :     0.042518

  3 H s       :     0.792778  s :     0.792778
      pz      :     0.030998  p :     0.079447
      px      :     0.031791
      py      :     0.016659

  4 C s       :     2.907256  s :     2.907256
      pz      :     1.074579  p :     3.123249
      px      :     1.048818
      py      :     0.999852
      dz2     :     0.008422  d :     0.080803
      dxz     :     0.022128
      dyz     :     0.016887
      dx2y2   :     0.019924
      dxy     :     0.013442

  5 H s       :     0.880581  s :     0.880581
      pz      :     0.015095  p :     0.040249
      px      :     0.017521
      py      :     0.007633

  6 H s       :     0.892917  s :     0.892917
      pz      :     0.013945  p :     0.039680
      px      :     0.011065
      py      :     0.014670

  7 N s       :     3.199279  s :     3.199279
      pz      :     1.442558  p :     3.986599
      px      :     1.160915
      py      :     1.383126
      dz2     :     0.005123  d :     0.058079
      dxz     :     0.021884
      dyz     :     0.005715
      dx2y2   :     0.020143
      dxy     :     0.005214

  8 C s       :     2.878869  s :     2.878869
      pz      :     1.038976  p :     3.096044
      px      :     1.024322
      py      :     1.032747
      dz2     :     0.012375  d :     0.099916
      dxz     :     0.025378
      dyz     :     0.023857
      dx2y2   :     0.017450
      dxy     :     0.020855

  9 H s       :     0.882274  s :     0.882274
      pz      :     0.017736  p :     0.040313
      px      :     0.010296
      py      :     0.012281

 10 H s       :     0.891522  s :     0.891522
      pz      :     0.017283  p :     0.039700
      px      :     0.015623
      py      :     0.006794

 11 C s       :     2.917298  s :     2.917298
      pz      :     1.061000  p :     3.215201
      px      :     1.067976
      py      :     1.086225
      dz2     :     0.008170  d :     0.064218
      dxz     :     0.017178
      dyz     :     0.016963
      dx2y2   :     0.008216
      dxy     :     0.013692

 12 H s       :     0.892175  s :     0.892175
      pz      :     0.010733  p :     0.040214
      px      :     0.009228
      py      :     0.020253

 13 C s       :     2.918917  s :     2.918917
      pz      :     1.074202  p :     3.211960
      px      :     1.086056
      py      :     1.051701
      dz2     :     0.006304  d :     0.064431
      dxz     :     0.017023
      dyz     :     0.016490
      dx2y2   :     0.009997
      dxy     :     0.014616

 14 H s       :     0.892463  s :     0.892463
      pz      :     0.016054  p :     0.039700
      px      :     0.010529
      py      :     0.013117

 15 H s       :     0.890913  s :     0.890913
      pz      :     0.009146  p :     0.039560
      px      :     0.018989
      py      :     0.011425

 16 H s       :     0.893124  s :     0.893124
      pz      :     0.014446  p :     0.039917
      px      :     0.010954
      py      :     0.014517

 17 H s       :     0.892965  s :     0.892965
      pz      :     0.018097  p :     0.039512
      px      :     0.013757
      py      :     0.007658

 18 H s       :     0.892499  s :     0.892499
      pz      :     0.009209  p :     0.039562
      px      :     0.019389
      py      :     0.010963

 19 O s       :     3.472561  s :     3.472561
      pz      :     1.523610  p :     4.614568
      px      :     1.477931
      py      :     1.613026
      dz2     :     0.007511  d :     0.051166
      dxz     :     0.009895
      dyz     :     0.009188
      dx2y2   :     0.015665
      dxy     :     0.008907

 20 H s       :     0.704018  s :     0.704018
      pz      :     0.052857  p :     0.115568
      px      :     0.020489
      py      :     0.042222

 21 O s       :     3.554533  s :     3.554533
      pz      :     1.532869  p :     4.612469
      px      :     1.606325
      py      :     1.473274
      dz2     :     0.008669  d :     0.057955
      dxz     :     0.015210
      dyz     :     0.009131
      dx2y2   :     0.011012
      dxy     :     0.013933



                      *****************************
                      * MAYER POPULATION ANALYSIS *
                      *****************************

  NA   - Mulliken gross atomic population
  ZA   - Total nuclear charge
  QA   - Mulliken gross atomic charge
  VA   - Mayer's total valence
  BVA  - Mayer's bonded valence
  FA   - Mayer's free valence

  ATOM       NA         ZA         QA         VA         BVA        FA
  0 C      6.0475     6.0000    -0.0475     3.8661     3.8661     0.0000
  1 C      5.5069     6.0000     0.4931     3.9430     3.9430     0.0000
  2 H      0.7608     1.0000     0.2392     0.9214     0.9214     0.0000
  3 H      0.7533     1.0000     0.2467     0.9304     0.9304    -0.0000
  4 C      6.1747     6.0000    -0.1747     3.8589     3.8589    -0.0000
  5 H      0.8773     1.0000     0.1227     0.9540     0.9540     0.0000
  6 H      0.8949     1.0000     0.1051     0.9577     0.9577    -0.0000
  7 N      7.5558     7.0000    -0.5558     2.9068     2.9068    -0.0000
  8 C      6.0799     6.0000    -0.0799     3.9210     3.9210     0.0000
  9 H      0.8807     1.0000     0.1193     0.9615     0.9615    -0.0000
 10 H      0.8992     1.0000     0.1008     0.9595     0.9595    -0.0000
 11 C      6.3206     6.0000    -0.3206     3.8843     3.8843     0.0000
 12 H      0.8917     1.0000     0.1083     0.9580     0.9580     0.0000
 13 C      6.3200     6.0000    -0.3200     3.8858     3.8858     0.0000
 14 H      0.8940     1.0000     0.1060     0.9584     0.9584     0.0000
 15 H      0.8958     1.0000     0.1042     0.9574     0.9574     0.0000
 16 H      0.8962     1.0000     0.1038     0.9598     0.9598     0.0000
 17 H      0.8961     1.0000     0.1039     0.9569     0.9569     0.0000
 18 H      0.8975     1.0000     0.1025     0.9570     0.9570     0.0000
 19 O      8.4510     8.0000    -0.4510     2.0413     2.0413     0.0000
 20 H      0.6845     1.0000     0.3155     0.9199     0.9199    -0.0000
 21 O      8.4217     8.0000    -0.4217     2.1118     2.1118    -0.0000

  Mayer bond orders larger than 0.100000
B(  0-C ,  1-C ) :   0.8942 B(  0-C ,  4-C ) :   0.9754 B(  0-C ,  5-H ) :   0.9214 
B(  0-C ,  7-N ) :   1.0506 B(  1-C , 19-O ) :   1.0756 B(  1-C , 21-O ) :   1.9227 
B(  2-H ,  7-N ) :   0.9094 B(  3-H ,  7-N ) :   0.8974 B(  4-C ,  8-C ) :   0.9950 
B(  4-C ,  9-H ) :   0.9333 B(  4-C , 10-H ) :   0.9390 B(  6-H , 13-C ) :   0.9591 
B(  8-C , 11-C ) :   1.0094 B(  8-C , 13-C ) :   1.0042 B(  8-C , 16-H ) :   0.9322 
B( 11-C , 12-H ) :   0.9556 B( 11-C , 14-H ) :   0.9583 B( 11-C , 15-H ) :   0.9594 
B( 13-C , 17-H ) :   0.9596 B( 13-C , 18-H ) :   0.9594 B( 19-O , 20-H ) :   0.8512 


-------
TIMINGS
-------

Total SCF time: 0 days 0 hours 0 min 7 sec 

Total time                  ....       7.463 sec
Sum of individual times     ....       6.989 sec  ( 93.6%)

SCF preparation             ....       0.029 sec  (  0.4%)
Fock matrix formation       ....       6.896 sec  ( 92.4%)
  Startup                   ....       0.001 sec  (  0.0% of F)
  Split-RI-J                ....       2.390 sec  ( 34.7% of F)
  XC integration            ....       4.903 sec  ( 71.1% of F)
    XC Preparation          ....       0.000 sec  (  0.0% of XC)
    Basis function eval.    ....       1.747 sec  ( 35.6% of XC)
    Density eval.           ....       1.098 sec  ( 22.4% of XC)
    XC-Functional eval.     ....       0.876 sec  ( 17.9% of XC)
    XC-Potential eval.      ....       1.053 sec  ( 21.5% of XC)
Diagonalization             ....       0.000 sec  (  0.0%)
Density matrix formation    ....       0.005 sec  (  0.1%)
Total Energy calculation    ....       0.001 sec  (  0.0%)
Population analysis         ....       0.003 sec  (  0.0%)
Orbital Transformation      ....       0.006 sec  (  0.1%)
Orbital Orthonormalization  ....       0.000 sec  (  0.0%)
DIIS solution               ....       0.028 sec  (  0.4%)
SOSCF solution              ....       0.021 sec  (  0.3%)
Finished LeanSCF after   7.5 sec

Maximum memory used throughout the entire LEANSCF-calculation: 21.6 MB



-------------------------------------------------------------------------------
                          DFT DISPERSION CORRECTION                            
-------------------------------------------------------------------------------
Active option DFTDOPT                   ...         2   
Final C6-coefficient scaling factor     ...     1.250
Final VDW-radii scaling factor          ...     1.100
Damping factor alpha                    ...    20.000
-------------------------   ----------------
Dispersion correction           -0.033635539
-------------------------   ----------------


-------------------------   --------------------
FINAL SINGLE POINT ENERGY      -441.405895943994
-------------------------   --------------------

------------------------------------------------------------------------------
                         ORCA SCF GRADIENT CALCULATION
------------------------------------------------------------------------------

Nuc. rep. gradient        (SHARK) ... done (  0.0 sec)
HCore & Overlap gradient  (SHARK) ... done (  0.1 sec)
Split-RIJ-J gradient      (SHARK) ... done (  0.6 sec)
XC gradient                       ... done (  2.8 sec)
Dispersion correction             ... done (  0.0 sec)

-------------------
DISPERSION GRADIENT
-------------------

   1   C   :    0.001361482    0.000359956    0.000389578
   2   C   :    0.000017991    0.000676632   -0.000293452
   3   H   :    0.000709862    0.000149793   -0.000420064
   4   H   :    0.000568975    0.000508878   -0.000726134
   5   C   :   -0.000254821    0.000550269   -0.000213136
   6   H   :    0.000631129    0.000945006   -0.000076525
   7   H   :   -0.000272282   -0.000424098    0.001421361
   8   N   :   -0.000399983    0.000311766    0.000061283
   9   C   :    0.000310696   -0.001967791   -0.000544320
  10   H   :    0.000873855    0.000589147    0.000355173
  11   H   :    0.000116560   -0.000442598   -0.000563125
  12   C   :   -0.000713622   -0.000370072    0.000169945
  13   H   :   -0.001009883   -0.001643385   -0.000261082
  14   C   :   -0.000176713   -0.000006836    0.000608070
  15   H   :   -0.001541351    0.000298283   -0.000215118
  16   H   :    0.000080368    0.000513176   -0.001177089
  17   H   :   -0.000345233   -0.000573617    0.000368083
  18   H   :   -0.000701038   -0.001194005   -0.000142322
  19   H   :    0.001214814   -0.000328045    0.000388506
  20   O   :   -0.000087617    0.001135469    0.000343274
  21   H   :    0.000372999    0.000251243    0.000097600
  22   O   :   -0.000756189    0.000660828    0.000429492

Difference to translation invariance:
           :    0.0000000000    0.0000000000   -0.0000000000

Difference to rotation invariance:
           :    0.0000000000    0.0000000000    0.0000000000

Norm of the Dispersion gradient    ...    0.0055562770
RMS gradient                       ...    0.0006839304
MAX gradient                       ...    0.0019677915

------------------
CARTESIAN GRADIENT
------------------

   1   C   :   -0.003149915    0.001167974    0.001665996
   2   C   :    0.002441876    0.002945303    0.008109004
   3   H   :   -0.000303960   -0.004352381   -0.000683839
   4   H   :   -0.001639507   -0.002339516   -0.003374509
   5   C   :    0.005778722   -0.002179802   -0.000550235
   6   H   :    0.003378844    0.001066271    0.002447680
   7   H   :   -0.004283253    0.006236727    0.005134148
   8   N   :   -0.003718674    0.004703478    0.010439971
   9   C   :   -0.001507602    0.003155799   -0.001108209
  10   H   :   -0.002750220    0.003735984    0.004252043
  11   H   :   -0.005301620   -0.000244797   -0.003971903
  12   C   :   -0.000070079   -0.003607000   -0.003496899
  13   H   :    0.002895493   -0.006870090    0.004919698
  14   C   :    0.002002878   -0.003695678   -0.000582812
  15   H   :   -0.003707607    0.005224517    0.006409089
  16   H   :    0.007144009    0.004174109   -0.001836173
  17   H   :    0.001534681   -0.002561131   -0.002716351
  18   H   :   -0.005671866   -0.000608386   -0.006639153
  19   H   :    0.006633791    0.004805805   -0.002895551
  20   O   :    0.029227878    0.005237644    0.004347430
  21   H   :   -0.005281559   -0.002546805   -0.003252596
  22   O   :   -0.023652311   -0.013448025   -0.016616831

Difference to translation invariance:
           :    0.0000000000    0.0000000000    0.0000000000

Difference to rotation invariance:
           :   -0.0000025028    0.0000553013    0.0005750305

Norm of the Cartesian gradient     ...    0.0540684796
RMS gradient                       ...    0.0066553698
MAX gradient                       ...    0.0292278776

-------
TIMINGS
-------

Total SCF gradient time     ....        3.541 sec

Densities                   ....       0.000 sec  (  0.0%)
One electron gradient       ....       0.138 sec  (  3.9%)
RI-J Coulomb gradient       ....       0.633 sec  ( 17.9%)
XC gradient                 ....       2.771 sec  ( 78.2%)

Maximum memory used throughout the entire SCFGRAD-calculation: 27.5 MB
------------------------------------------------------------------------------
                         ORCA GEOMETRY RELAXATION STEP
------------------------------------------------------------------------------

Reading the OPT-File                    .... done
Getting information on internals        .... done
Copying old internal coords+grads       .... done
Making the new internal coordinates     .... (2022 redundants) done
Validating the new internal coordinates .... (2022 redundants) done
Calculating the B-matrix                .... done
Calculating the G,G- and P matrices     .... done
Transforming gradient to internals      .... done
Projecting the internal gradient        .... done
Number of atoms                         ....  22
Number of internal coordinates          ....  94
Current Energy                          ....  -441.405895944 Eh
Current gradient norm                   ....     0.054068480 Eh/bohr
Maximum allowed component of the step   ....  0.300
Current trust radius                    ....  0.300
Evaluating the initial hessian          ....  (Almloef) done
Projecting the Hessian                  .... done
Forming the augmented Hessian           .... done
Diagonalizing the augmented Hessian     .... done
Last element of RFO vector              ....  0.980699522
Lowest eigenvalues of augmented Hessian:
 -0.005836432  0.010496443  0.011042700  0.011276389  0.011282519
Length of the computed step             ....  0.199368879
The final length of the internal step   ....  0.199368879
Converting the step to Cartesian space:
 Initial RMS(Int)=    0.0205633298
Transforming coordinates:
 Iter   0:  RMS(Cart)=    0.0645489771 RMS(Int)=    0.0207048807
 Iter   5:  RMS(Cart)=    0.0000000180 RMS(Int)=    0.0000000103
done
Storing new coordinates                 .... done

                                .--------------------.
          ----------------------|Geometry convergence|-------------------------
          Item                value                   Tolerance       Converged
          ---------------------------------------------------------------------
          RMS gradient        0.0055007329            0.0001000000      NO
          MAX gradient        0.0317861793            0.0003000000      NO
          RMS step            0.0205633298            0.0020000000      NO
          MAX step            0.0677266387            0.0040000000      NO
          -------------------------------------------------------------------------
          ........................................................
          Max(Bonds)      0.0178      Max(Angles)    1.62
          Max(Dihed)        3.88      Max(Improp)    0.00
          ---------------------------------------------------------------------

The optimization has not yet converged - more geometry cycles are needed


    ---------------------------------------------------------------------------
                         Redundant Internal Coordinates
                            (Angstroem and degrees)

        Definition                    Value    dE/dq     Step     New-Value
    ----------------------------------------------------------------------------
     1. B(C   1,C   0)                1.5218 -0.010999  0.0149    1.5367   
     2. B(C   4,C   0)                1.5395 -0.007870  0.0114    1.5509   
     3. B(H   5,C   0)                1.0931 -0.004111  0.0060    1.0991   
     4. B(N   7,H   3)                1.0161 -0.003495  0.0043    1.0204   
     5. B(N   7,C   0)                1.4519 -0.008308  0.0097    1.4616   
     6. B(N   7,H   2)                1.0149 -0.003717  0.0046    1.0195   
     7. B(C   8,C   4)                1.5314 -0.007760  0.0109    1.5422   
     8. B(H   9,C   4)                1.0914 -0.006263  0.0091    1.1006   
     9. B(H  10,C   4)                1.0932 -0.006502  0.0095    1.1027   
    10. B(C  11,C   8)                1.5268 -0.008253  0.0114    1.5382   
    11. B(H  12,C  11)                1.0864 -0.008839  0.0126    1.0990   
    12. B(C  13,C   8)                1.5283 -0.008405  0.0116    1.5399   
    13. B(C  13,H   6)                1.0878 -0.009119  0.0131    1.1009   
    14. B(H  14,C  11)                1.0877 -0.009059  0.0130    1.1007   
    15. B(H  15,C  11)                1.0876 -0.008407  0.0121    1.0996   
    16. B(H  16,C   8)                1.0947 -0.004021  0.0059    1.1007   
    17. B(H  17,C  13)                1.0877 -0.008697  0.0125    1.1001   
    18. B(H  18,C  13)                1.0874 -0.008610  0.0123    1.0998   
    19. B(O  19,C   1)                1.3378 -0.022956  0.0178    1.3555   
    20. B(H  20,O  19)                0.9713 -0.003293  0.0035    0.9747   
    21. B(O  21,C   1)                1.2037 -0.031786  0.0151    1.2187   
    22. A(C   4,C   0,N   7)          108.46 -0.002024    0.61    109.07   
    23. A(C   1,C   0,H   5)          108.80  0.000766   -0.41    108.39   
    24. A(H   5,C   0,N   7)          108.60  0.000870   -0.31    108.29   
    25. A(C   4,C   0,H   5)          110.08  0.000918   -0.57    109.51   
    26. A(C   1,C   0,N   7)          111.94 -0.000243    0.37    112.31   
    27. A(C   1,C   0,C   4)          108.96 -0.000261    0.29    109.24   
    28. A(C   0,C   1,O  21)          124.33  0.000060    0.03    124.36   
    29. A(C   0,C   1,O  19)          113.05  0.004043   -0.53    112.53   
    30. A(O  19,C   1,O  21)          122.62 -0.004112    0.51    123.13   
    31. A(H   9,C   4,H  10)          107.67  0.001370   -0.49    107.18   
    32. A(C   0,C   4,H  10)          107.87  0.001323   -0.00    107.86   
    33. A(C   8,C   4,H   9)          109.55  0.000730   -0.19    109.36   
    34. A(C   0,C   4,H   9)          106.74  0.001841   -0.34    106.40   
    35. A(C   0,C   4,C   8)          115.27 -0.003835    0.71    115.98   
    36. A(C   8,C   4,H  10)          109.46 -0.001043    0.22    109.68   
    37. A(C   0,N   7,H   2)          110.46  0.001067   -0.45    110.01   
    38. A(H   2,N   7,H   3)          107.04  0.001057   -0.84    106.20   
    39. A(C   0,N   7,H   3)          109.17  0.002132   -0.64    108.53   
    40. A(C  13,C   8,H  16)          108.43  0.000619   -0.24    108.19   
    41. A(C   4,C   8,H  16)          109.16  0.000350   -0.35    108.81   
    42. A(C  11,C   8,H  16)          108.42  0.000101   -0.19    108.23   
    43. A(C  11,C   8,C  13)          109.88 -0.001192    0.50    110.38   
    44. A(C   4,C   8,C  13)          109.23 -0.000924    0.35    109.58   
    45. A(C   4,C   8,C  11)          111.66  0.001061   -0.09    111.57   
    46. A(H  14,C  11,H  15)          108.44  0.000976   -0.15    108.29   
    47. A(H  12,C  11,H  15)          107.89  0.000736   -0.10    107.79   
    48. A(C   8,C  11,H  15)          110.13 -0.001305    0.26    110.40   
    49. A(H  12,C  11,H  14)          108.64  0.000873   -0.22    108.42   
    50. A(C   8,C  11,H  14)          110.40  0.000261   -0.05    110.35   
    51. A(C   8,C  11,H  12)          111.25 -0.001445    0.24    111.49   
    52. A(H   6,C  13,H  18)          108.37  0.001438   -0.24    108.14   
    53. A(C   8,C  13,H  17)          110.88 -0.001149    0.19    111.07   
    54. A(H   6,C  13,H  17)          108.41  0.000955   -0.24    108.17   
    55. A(H   6,C  13,C   8)          110.30 -0.000204    0.03    110.33   
    56. A(H  17,C  13,H  18)          108.29  0.000289   -0.01    108.28   
    57. A(C   8,C  13,H  18)          110.51 -0.001223    0.25    110.76   
    58. A(C   1,O  19,H  20)          110.59  0.010693   -1.62    108.97   
    59. D(O  19,C   1,C   0,H   5)     30.82  0.000083   -0.69     30.13   
    60. D(O  21,C   1,C   0,H   5)   -148.85  0.001851   -3.88   -152.73   
    61. D(O  21,C   1,C   0,C   4)     91.12  0.000439   -3.11     88.01   
    62. D(O  19,C   1,C   0,N   7)    150.84  0.001522   -1.11    149.74   
    63. D(O  19,C   1,C   0,C   4)    -89.20 -0.001329    0.08    -89.12   
    64. D(C   8,C   4,C   0,C   1)     70.56  0.001591   -2.27     68.29   
    65. D(C   8,C   4,C   0,H   5)    -48.67  0.000267   -1.60    -50.28   
    66. D(H   9,C   4,C   0,H   5)     73.23  0.000085   -1.64     71.59   
    67. D(H   9,C   4,C   0,N   7)    -45.45 -0.000290   -1.30    -46.76   
    68. D(C   8,C   4,C   0,N   7)   -167.36 -0.000108   -1.27   -168.62   
    69. D(H   9,C   4,C   0,C   1)   -167.53  0.001409   -2.31   -169.84   
    70. D(H   2,N   7,C   0,H   5)     58.56 -0.000819    0.48     59.04   
    71. D(H   2,N   7,C   0,C   4)    178.18 -0.000384   -0.03    178.14   
    72. D(H   3,N   7,C   0,C   1)     55.86  0.000996   -0.72     55.14   
    73. D(H   2,N   7,C   0,C   1)    -61.58 -0.002197    0.96    -60.62   
    74. D(H   3,N   7,C   0,C   4)    -64.38  0.002810   -1.71    -66.09   
    75. D(C  13,C   8,C   4,H  10)    -47.98 -0.001122   -1.51    -49.48   
    76. D(C  13,C   8,C   4,H   9)     69.86  0.000355   -2.08     67.79   
    77. D(C  13,C   8,C   4,C   0)   -169.75  0.000664   -2.18   -171.93   
    78. D(C  11,C   8,C   4,H  10)   -169.72  0.000315   -2.31   -172.03   
    79. D(C  11,C   8,C   4,H   9)    -51.88  0.001792   -2.88    -54.76   
    80. D(C  11,C   8,C   4,C   0)     68.51  0.002101   -2.98     65.52   
    81. D(H  14,C  11,C   8,H  16)    176.81  0.000325    0.35    177.15   
    82. D(H  14,C  11,C   8,C  13)    -64.85  0.000449    0.24    -64.62   
    83. D(H  14,C  11,C   8,C   4)     56.52 -0.000831    0.96     57.47   
    84. D(H  12,C  11,C   8,H  16)     56.11  0.000007    0.50     56.61   
    85. D(H  12,C  11,C   8,C  13)    174.45  0.000131    0.39    174.84   
    86. D(H  12,C  11,C   8,C   4)    -64.19 -0.001149    1.11    -63.07   
    87. D(H   6,C  13,C   8,H  16)   -179.63 -0.000296    0.13   -179.50   
    88. D(H   6,C  13,C   8,C  11)     62.04 -0.000100    0.21     62.25   
    89. D(H   6,C  13,C   8,C   4)    -60.77 -0.000044   -0.22    -61.00   
    90. D(H  17,C  13,C   8,H  16)    -59.53  0.000020   -0.03    -59.56   
[...]
      px      :     0.002906
      py      :     0.005772

 13 C s       :     3.260447  s :     3.260447
      pz      :     1.026458  p :     3.028977
      px      :     1.032583
      py      :     0.969936
      dz2     :     0.002263  d :     0.029600
      dxz     :     0.008553
      dyz     :     0.007654
      dx2y2   :     0.005502
      dxy     :     0.005628

 14 H s       :     0.886257  s :     0.886257
      pz      :     0.004922  p :     0.011252
      px      :     0.002788
      py      :     0.003541

 15 H s       :     0.886178  s :     0.886178
      pz      :     0.002911  p :     0.011316
      px      :     0.004927
      py      :     0.003478

 16 H s       :     0.890640  s :     0.890640
      pz      :     0.004590  p :     0.011351
      px      :     0.002917
      py      :     0.003844

 17 H s       :     0.883691  s :     0.883691
      pz      :     0.004443  p :     0.011291
      px      :     0.004476
      py      :     0.002371

 18 H s       :     0.885491  s :     0.885491
      pz      :     0.003170  p :     0.011273
      px      :     0.004968
      py      :     0.003135

 19 O s       :     3.844604  s :     3.844604
      pz      :     1.568732  p :     4.593761
      px      :     1.391857
      py      :     1.633172
      dz2     :     0.003922  d :     0.023075
      dxz     :     0.004347
      dyz     :     0.004705
      dx2y2   :     0.006037
      dxy     :     0.004064

 20 H s       :     0.645594  s :     0.645594
      pz      :     0.016452  p :     0.037330
      px      :     0.007542
      py      :     0.013337

 21 O s       :     3.872385  s :     3.872385
      pz      :     1.443542  p :     4.528838
      px      :     1.610371
      py      :     1.474925
      dz2     :     0.006962  d :     0.027309
      dxz     :     0.006391
      dyz     :     0.004764
      dx2y2   :     0.004237
      dxy     :     0.004956



                     *******************************
                     * LOEWDIN POPULATION ANALYSIS *
                     *******************************

----------------------
LOEWDIN ATOMIC CHARGES
----------------------
   0 C :   -0.048787
   1 C :    0.125572
   2 H :    0.126778
   3 H :    0.129533
   4 C :   -0.112469
   5 H :    0.080072
   6 H :    0.068383
   7 N :   -0.249565
   8 C :   -0.072526
   9 H :    0.077659
  10 H :    0.070759
  11 C :   -0.202561
  12 H :    0.072003
  13 C :   -0.197400
  14 H :    0.067514
  15 H :    0.070040
  16 H :    0.065264
  17 H :    0.069328
  18 H :    0.069343
  19 O :   -0.157851
  20 H :    0.182299
  21 O :   -0.233388

-------------------------------
LOEWDIN REDUCED ORBITAL CHARGES
-------------------------------
  0 C s       :     2.890119  s :     2.890119
      pz      :     1.026886  p :     3.033883
      px      :     0.982033
      py      :     1.024964
      dz2     :     0.013635  d :     0.124785
      dxz     :     0.036373
      dyz     :     0.026174
      dx2y2   :     0.027569
      dxy     :     0.021032

  1 C s       :     2.875699  s :     2.875699
      pz      :     0.946032  p :     2.721845
      px      :     0.897826
      py      :     0.877987
      dz2     :     0.055765  d :     0.276884
      dxz     :     0.060065
      dyz     :     0.033945
      dx2y2   :     0.077680
      dxy     :     0.049429

  2 H s       :     0.796304  s :     0.796304
      pz      :     0.023024  p :     0.076918
      px      :     0.012888
      py      :     0.041006

  3 H s       :     0.792641  s :     0.792641
      pz      :     0.034491  p :     0.077826
      px      :     0.026703
      py      :     0.016632

  4 C s       :     2.915589  s :     2.915589
      pz      :     1.071358  p :     3.118332
      px      :     1.045998
      py      :     1.000975
      dz2     :     0.007631  d :     0.078549
      dxz     :     0.021509
      dyz     :     0.017758
      dx2y2   :     0.019422
      dxy     :     0.012229

  5 H s       :     0.880254  s :     0.880254
      pz      :     0.017326  p :     0.039674
      px      :     0.015026
      py      :     0.007323

  6 H s       :     0.893557  s :     0.893557
      pz      :     0.015859  p :     0.038060
      px      :     0.008730
      py      :     0.013471

  7 N s       :     3.224975  s :     3.224975
      pz      :     1.388117  p :     3.967229
      px      :     1.198606
      py      :     1.380507
      dz2     :     0.006524  d :     0.057360
      dxz     :     0.019220
      dyz     :     0.006977
      dx2y2   :     0.018571
      dxy     :     0.006069

  8 C s       :     2.887986  s :     2.887986
      pz      :     1.040369  p :     3.087817
      px      :     1.018806
      py      :     1.028643
      dz2     :     0.011935  d :     0.096722
      dxz     :     0.024612
      dyz     :     0.022084
      dx2y2   :     0.019971
      dxy     :     0.018121

  9 H s       :     0.883348  s :     0.883348
      pz      :     0.016946  p :     0.038993
      px      :     0.009491
      py      :     0.012556

 10 H s       :     0.890702  s :     0.890702
      pz      :     0.016017  p :     0.038539
      px      :     0.016021
      py      :     0.006501

 11 C s       :     2.928452  s :     2.928452
      pz      :     1.063781  p :     3.212395
      px      :     1.058804
      py      :     1.089810
      dz2     :     0.009574  d :     0.061714
      dxz     :     0.016330
      dyz     :     0.013361
      dx2y2   :     0.010433
      dxy     :     0.012017

 12 H s       :     0.888660  s :     0.888660
      pz      :     0.008549  p :     0.039337
      px      :     0.008709
      py      :     0.022079

 13 C s       :     2.929672  s :     2.929672
      pz      :     1.078894  p :     3.205644
      px      :     1.084001
      py      :     1.042749
      dz2     :     0.004616  d :     0.062085
      dxz     :     0.017099
      dyz     :     0.016352
      dx2y2   :     0.012431
      dxy     :     0.011587

 14 H s       :     0.894423  s :     0.894423
      pz      :     0.018105  p :     0.038063
      px      :     0.008446
      py      :     0.011513

 15 H s       :     0.891831  s :     0.891831
      pz      :     0.009049  p :     0.038129
      px      :     0.018148
      py      :     0.010932

 16 H s       :     0.896547  s :     0.896547
      pz      :     0.016495  p :     0.038189
      px      :     0.008889
      py      :     0.012806

 17 H s       :     0.892577  s :     0.892577
      pz      :     0.015575  p :     0.038095
      px      :     0.015807
      py      :     0.006713

 18 H s       :     0.892550  s :     0.892550
      pz      :     0.009674  p :     0.038106
      px      :     0.018307
      py      :     0.010125

 19 O s       :     3.499573  s :     3.499573
      pz      :     1.561180  p :     4.609645
      px      :     1.434893
      py      :     1.613573
      dz2     :     0.007684  d :     0.048633
      dxz     :     0.008842
      dyz     :     0.008643
      dx2y2   :     0.015001
      dxy     :     0.008462

 20 H s       :     0.703965  s :     0.703965
      pz      :     0.052157  p :     0.113736
      px      :     0.020616
      py      :     0.040963

 21 O s       :     3.568962  s :     3.568962
      pz      :     1.490220  p :     4.608789
      px      :     1.636144
      py      :     1.482425
      dz2     :     0.011028  d :     0.055637
      dxz     :     0.015830
      dyz     :     0.011191
      dx2y2   :     0.007820
      dxy     :     0.009768



                      *****************************
                      * MAYER POPULATION ANALYSIS *
                      *****************************

  NA   - Mulliken gross atomic population
  ZA   - Total nuclear charge
  QA   - Mulliken gross atomic charge
  VA   - Mayer's total valence
  BVA  - Mayer's bonded valence
  FA   - Mayer's free valence

  ATOM       NA         ZA         QA         VA         BVA        FA
  0 C      6.0501     6.0000    -0.0501     3.8615     3.8615    -0.0000
  1 C      5.4986     6.0000     0.5014     3.9049     3.9049    -0.0000
  2 H      0.7612     1.0000     0.2388     0.9192     0.9192    -0.0000
  3 H      0.7528     1.0000     0.2472     0.9298     0.9298    -0.0000
  4 C      6.1678     6.0000    -0.1678     3.8571     3.8571    -0.0000
  5 H      0.8752     1.0000     0.1248     0.9530     0.9530     0.0000
  6 H      0.8952     1.0000     0.1048     0.9585     0.9585     0.0000
  7 N      7.5544     7.0000    -0.5544     2.8950     2.8950    -0.0000
  8 C      6.0767     6.0000    -0.0767     3.9172     3.9172    -0.0000
  9 H      0.8826     1.0000     0.1174     0.9597     0.9597    -0.0000
 10 H      0.8970     1.0000     0.1030     0.9597     0.9597    -0.0000
 11 C      6.3260     6.0000    -0.3260     3.8758     3.8758    -0.0000
 12 H      0.8817     1.0000     0.1183     0.9615     0.9615    -0.0000
 13 C      6.3190     6.0000    -0.3190     3.8820     3.8820    -0.0000
 14 H      0.8975     1.0000     0.1025     0.9585     0.9585    -0.0000
 15 H      0.8975     1.0000     0.1025     0.9584     0.9584    -0.0000
 16 H      0.9020     1.0000     0.0980     0.9549     0.9549     0.0000
 17 H      0.8950     1.0000     0.1050     0.9573     0.9573     0.0000
 18 H      0.8968     1.0000     0.1032     0.9575     0.9575    -0.0000
 19 O      8.4614     8.0000    -0.4614     2.0348     2.0348     0.0000
 20 H      0.6829     1.0000     0.3171     0.9190     0.9190    -0.0000
 21 O      8.4285     8.0000    -0.4285     2.1007     2.1007    -0.0000

  Mayer bond orders larger than 0.100000
B(  0-C ,  1-C ) :   0.8954 B(  0-C ,  4-C ) :   0.9735 B(  0-C ,  5-H ) :   0.9224 
B(  0-C ,  7-N ) :   1.0384 B(  1-C , 19-O ) :   1.0569 B(  1-C , 21-O ) :   1.8987 
B(  2-H ,  7-N ) :   0.9083 B(  3-H ,  7-N ) :   0.8949 B(  4-C ,  8-C ) :   0.9915 
B(  4-C ,  9-H ) :   0.9343 B(  4-C , 10-H ) :   0.9382 B(  6-H , 13-C ) :   0.9582 
B(  8-C , 11-C ) :   1.0038 B(  8-C , 13-C ) :   1.0017 B(  8-C , 16-H ) :   0.9342 
B( 11-C , 12-H ) :   0.9506 B( 11-C , 14-H ) :   0.9574 B( 11-C , 15-H ) :   0.9585 
B( 13-C , 17-H ) :   0.9585 B( 13-C , 18-H ) :   0.9584 B( 19-O , 20-H ) :   0.8519 


-------
TIMINGS
-------

Total SCF time: 0 days 0 hours 0 min 3 sec 

Total time                  ....       3.398 sec
Sum of individual times     ....       2.921 sec  ( 86.0%)

SCF preparation             ....       0.031 sec  (  0.9%)
Fock matrix formation       ....       2.856 sec  ( 84.1%)
  Startup                   ....       0.001 sec  (  0.0% of F)
  Split-RI-J                ....       1.062 sec  ( 37.2% of F)
  XC integration            ....       2.203 sec  ( 77.1% of F)
    Basis function eval.    ....       0.817 sec  ( 37.1% of XC)
    Density eval.           ....       0.504 sec  ( 22.9% of XC)
    XC-Functional eval.     ....       0.409 sec  ( 18.6% of XC)
    XC-Potential eval.      ....       0.414 sec  ( 18.8% of XC)
Diagonalization             ....       0.000 sec  (  0.0%)
Density matrix formation    ....       0.002 sec  (  0.1%)
Total Energy calculation    ....       0.000 sec  (  0.0%)
Population analysis         ....       0.010 sec  (  0.3%)
Orbital Transformation      ....       0.003 sec  (  0.1%)
Orbital Orthonormalization  ....       0.000 sec  (  0.0%)
DIIS solution               ....       0.004 sec  (  0.1%)
SOSCF solution              ....       0.014 sec  (  0.4%)
Finished LeanSCF after   3.4 sec

Maximum memory used throughout the entire LEANSCF-calculation: 22.0 MB



-------------------------------------------------------------------------------
                          DFT DISPERSION CORRECTION                            
-------------------------------------------------------------------------------
Active option DFTDOPT                   ...         2   
Final C6-coefficient scaling factor     ...     1.250
Final VDW-radii scaling factor          ...     1.100
Damping factor alpha                    ...    20.000
-------------------------   ----------------
Dispersion correction           -0.033775803
-------------------------   ----------------


-------------------------   --------------------
FINAL SINGLE POINT ENERGY      -441.410332503765
-------------------------   --------------------

                                *** OPTIMIZATION RUN DONE ***


------------------------------------------------------------------------------
                              ORCA PROPERTY CALCULATIONS
------------------------------------------------------------------------------

GBWName                                 ... 4.gbw
Number of atoms                         ...     22
Number of basis functions               ...    191
Max core memory                         ...   4096 MB

Electric properties:
Dipole moment                           ... YES
Quadrupole moment                       ...  NO
Static polarizability (Dipole/Dipole)   ...  NO
Static polarizability (Dipole/Quad.)    ...  NO
Static polarizability (Quad./Quad.)     ...  NO
Static polarizability (Velocity)        ...  NO
Static hyperpolarizability              ...  NO

Atomic electric properties:
Dipole moment                           ...  NO
Quadrupole moment                       ...  NO
Static polarizability                   ...  NO

Choice of electric origin               ... Center of mass
Position of electric origin             ...   -17.814057    10.827843    -3.336530

General magnetic properties:
Magnetizability                         ...  NO

EPR properties:
g-Tensor (aka g-matrix)                 ...  NO
Zero-Field splitting spin-orbit         ...  NO
Zero-field splitting spin-spin          ...  NO
Hyperfine couplings                     ...  NO (   0 nuclei)
Quadrupole couplings                    ...  NO (   0 nuclei)
Contact density                         ...  NO (   0 nuclei)

NMR properties:
Chemical shifts                         ...  NO (   0 nuclei)
Spin-rotation constants                 ...  NO (   0 nuclei)
Spin-spin couplings                     ...  NO (   0 nuclei,    0 pairs)

Choice of magnetic origin               ... GIAO
Position of magnetic origin             ...     0.000000     0.000000     0.000000

Properties with geometric perturbations:
SCF Hessian                             ...  NO
IR spectrum                             ...  NO
VCD spectrum                            ...  NO
X-ray spectroscopy properties:
SCF XES/XAS/RIXS spectra                ...  NO

SCF SOC stabilization energy            ...  NO
Diagonal Born-Oppenheimer correction    ...  NO

-------------
DIPOLE MOMENT
-------------

Method             : SCF
Type of density    : Electron Density
Multiplicity       :   1
Irrep              :   0
Energy             :  -441.3765567005280559 Eh
Basis              : AO
                                X                 Y                 Z
Electronic contribution:      1.699867293      11.671211206       1.826270418
Nuclear contribution   :     -2.243144780     -11.560256029      -1.784753399
                        -----------------------------------------
Total Dipole Moment    :     -0.543277487       0.110955177       0.041517018
                        -----------------------------------------
Magnitude (a.u.)       :      0.556044190
Magnitude (Debye)      :      1.413352011



--------------------
Rotational spectrum 
--------------------
 
Rotational constants in cm-1:             0.072884             0.034489             0.030367 
Rotational constants in MHz :          2184.993748          1033.964491           910.371592 

Dipole components along the rotational axes: 
x,y,z [a.u.] :     0.065372    -0.518153    -0.190864 
x,y,z [Debye]:     0.166162    -1.317041    -0.485138 

 

Dipole moment calculation done in   0.0 sec 

Maximum memory used throughout the entire PROP-calculation: 12.4 MB

--------------------------------
SUGGESTED CITATIONS FOR THIS RUN
--------------------------------

Below you find a list of papers that are relevant to this ORCA run
We neither can nor want to force you to cite these papers, but we appreciate if you do
You receive ORCA, which is the product of decades of hard work by many enthusiastic individuals, for free
The only thing we kindly ask in return is that you cite our papers,
We deeply appreciate it, if you show your appreciation for ORCA by not just citing the generic ORCA reference.

Please note that relegating all ORCA citations to the supporting information does *not* help us.
SI sections are not indexed - citations you put there will not count into any citation statistics
But we need these citations in order to attract the funding resources that allow us to do what we are doing

Therefore, if you are a happy ORCA user, please consider citing a few of the papers listed below in the main body of your paper

In addition to the list printed below, the program has created the file 4.bibtex that contains the list in bibtex format
You can import this file easily into all common literature databanks and citation aid programs


List of essential papers. We consider these as the minimum necessary citations

  1. Neese, F.
     Software update: the ORCA program system, version 6.0
     WIRES Comput. Molec. Sci. 2025 15(1), e70019
     doi.org/10.1002/wcms.7019

List of papers to cite with high priority. The work reported in these papers was absolutely
necessary for this run to complete.
Our perspective: the developers of density functionals and basis sets usually get cited in chemistry papers
Good! But without the algorithms to do something with them, the functionals or basis sets would not do anything.
Hence, in our opinion, the algorithm design and method developments papers are equally worthy of getting cited

  1. Neese, F.
     An improvement of the resolution of the identity approximation for the formation of the Coulomb matrix
     J. Comp. Chem. 2003 24(14), 1740-1747
     doi.org/10.1002/jcc.10318
  2. Grimme, S.
     Semiempirical GGA-type density functional constructed with a long-range dispersion correction
     J.Comput.Chem. 2006 27(15), 1787-1799
     doi.org/10.1002/jcc.20495
  3. Neese, F.
     The SHARK Integral Generation and Digestion System
     J. Comp. Chem. 2022 44(3), 381
     doi.org/10.1002/jcc.26942

List of suggested additional citations. These are papers that are important in the 'surrounding' of 
of this run, or papers that preceded the highly important papers. If you like your results we are grateful for a citation.

  1. Neese, F.
     The ORCA program system
     WIRES Comput. Molec. Sci. 2012 2(1), 73-78
     doi.org/10.1002/wcms.81
  2. Neese, F.
     Software update: the ORCA program system, version 4.0
     WIRES Comput. Molec. Sci. 2018 8(1), 1-6
     doi.org/10.1002/wcms.1327
  3. Neese, F.; Wennmohs, F.; Becker, U.; Riplinger, C.
     The ORCA quantum chemistry program package
     J. Chem. Phys. 2020 152(22), 224108
     doi.org/10.1063/5.0004608
  4. Neese, F.
     Software update: The ORCA program system—Version 5.0
     WIRES Comput. Molec. Sci. 2022 12(1), e1606
     doi.org/10.1002/wcms.1606

List of optional additional citations

  1. Neese, F.
     Approximate second-order SCF convergence for spin unrestricted wavefunctions
     Chem. Phys. Lett. 2000 325(1-3), 93-98
     doi.org/10.1016/s0009-2614(00)00662-x

Timings for individual modules:

Sum of individual times          ...       92.159 sec (=   1.536 min)
Startup calculation              ...        4.728 sec (=   0.079 min)   5.1 %
SCF iterations                   ...       54.950 sec (=   0.916 min)  59.6 %
Property calculations            ...        0.037 sec (=   0.001 min)   0.0 %
SCF Gradient evaluation          ...       32.425 sec (=   0.540 min)  35.2 %
Geometry relaxation              ...        0.019 sec (=   0.000 min)   0.0 %
                             ****ORCA TERMINATED NORMALLY****
TOTAL RUN TIME: 0 days 0 hours 1 minutes 32 seconds 388 msec
